
     Program PWSCF v.6.4.1 starts on  5May2022 at 11:29:25 

     This program is part of the open-source Quantum ESPRESSO suite
     for quantum simulation of materials; please cite
         "P. Giannozzi et al., J. Phys.:Condens. Matter 21 395502 (2009);
         "P. Giannozzi et al., J. Phys.:Condens. Matter 29 465901 (2017);
          URL http://www.quantum-espresso.org", 
     in publications or presentations arising from this work. More details at
     http://www.quantum-espresso.org/quote

     Parallel version (MPI), running on     1 processors

     MPI processes distributed on     1 nodes
     Waiting for input...
     Reading input from standard input

     Current dimensions of program PWSCF are:
     Max number of different atomic species (ntypx) = 10
     Max number of k-points (npk) =  40000
     Max angular momentum in pseudopotentials (lmaxx) =  3

     IMPORTANT: XC functional enforced from input :
     Exchange-correlation      = HSE ( 1  4 12  4 0 0)
     EXX-fraction              =        0.25
     Any further DFT definition will be discarded
     Please, verify this is what you really want

               file Ga.pbe-dn-kjpaw_psl.1.0.0.UPF: wavefunction(s)  4S renormalized
               file N.pbe-n-kjpaw_psl.1.0.0.UPF: wavefunction(s)  2S renormalized
     Message from routine setup :
     BEWARE: nonlinear core correction is not consistent with hybrid XC

     Subspace diagonalization in iterative solution of the eigenvalue problem:
     a serial algorithm will be used

     Message from routine setup:
     DEPRECATED: symmetry with ibrav=0, use correct ibrav instead
     EXX: setup a grid of 512 q-points centered on each k-point
     (set verbosity='high' to see the list)

     G-vector sticks info
     --------------------
     sticks:   dense  smooth     PW     G-vecs:    dense   smooth      PW
     Sum        2407     805    253               155203    29851    5119



     bravais-lattice index     =            0
     lattice parameter (alat)  =       6.0282  a.u.
     unit-cell volume          =     308.5974 (a.u.)^3
     number of atoms/cell      =            4
     number of atomic types    =            2
     number of electrons       =        36.00
     number of Kohn-Sham states=           20
     kinetic-energy cutoff     =      80.0000  Ry
     charge density cutoff     =     960.0000  Ry
     cutoff for Fock operator  =     320.0000  Ry
     convergence threshold     =      1.0E-06
     mixing beta               =       0.7000
     number of iterations used =            8  plain     mixing
     Exchange-correlation      = HSE ( 1  4 12  4 0 0)
     EXX-fraction              =        0.25

     celldm(1)=   6.028226  celldm(2)=   0.000000  celldm(3)=   0.000000
     celldm(4)=   0.000000  celldm(5)=   0.000000  celldm(6)=   0.000000

     crystal axes: (cart. coord. in units of alat)
               a(1) = (   0.866025  -0.500000   0.000000 )  
               a(2) = (   0.000000   1.000000   0.000000 )  
               a(3) = (   0.000000   0.000000   1.626646 )  

     reciprocal axes: (cart. coord. in units 2 pi/alat)
               b(1) = (  1.154701  0.000000  0.000000 )  
               b(2) = (  0.577350  1.000000 -0.000000 )  
               b(3) = ( -0.000000  0.000000  0.614762 )  


     PseudoPot. # 1 for Ga read from file:
     ./Ga.pbe-dn-kjpaw_psl.1.0.0.UPF
     MD5 check sum: 50ce49cbf7e0a40ad8623bf41840a268
     Pseudo is Projector augmented-wave + core cor, Zval = 13.0
     Generated using "atomic" code by A. Dal Corso v.6.3
     Shape of augmentation charge: PSQ
     Using radial grid of 1205 points,  6 beta functions with: 
                l(1) =   0
                l(2) =   0
                l(3) =   1
                l(4) =   1
                l(5) =   2
                l(6) =   2
     Q(r) pseudized with 0 coefficients 


     PseudoPot. # 2 for N  read from file:
     ./N.pbe-n-kjpaw_psl.1.0.0.UPF
     MD5 check sum: 14c48229446f9f2d411169a3abcbc3fa
     Pseudo is Projector augmented-wave + core cor, Zval =  5.0
     Generated using "atomic" code by A. Dal Corso v.6.3
     Shape of augmentation charge: PSQ
     Using radial grid of 1085 points,  4 beta functions with: 
                l(1) =   0
                l(2) =   0
                l(3) =   1
                l(4) =   1
     Q(r) pseudized with 0 coefficients 


     atomic species   valence    mass     pseudopotential
        Ga            13.00    69.72300     Ga( 1.00)
        N              5.00    14.00650     N ( 1.00)

     12 Sym. Ops. (no inversion) found ( 6 have fractional translation)



   Cartesian axes

     site n.     atom                  positions (alat units)
         1           Ga  tau(   1) = (   0.5773503  -0.0000000   0.0000000  )
         2           Ga  tau(   2) = (   0.2886751   0.5000000   0.8133229  )
         3           N   tau(   3) = (   0.5773503  -0.0000000   0.6099922  )
         4           N   tau(   4) = (   0.2886751   0.5000000   1.4233150  )

     number of k points=    80
                       cart. coord. in units 2pi/alat
        k(    1) = (   0.1082532   0.0625000   0.0384226), wk =   0.0156250
        k(    2) = (   0.1082532   0.0625000   0.1152679), wk =   0.0156250
        k(    3) = (   0.1082532   0.0625000   0.1921131), wk =   0.0156250
        k(    4) = (   0.1082532   0.0625000   0.2689584), wk =   0.0156250
        k(    5) = (   0.1804220   0.1875000   0.0384226), wk =   0.0312500
        k(    6) = (   0.1804220   0.1875000   0.1152679), wk =   0.0312500
        k(    7) = (   0.1804220   0.1875000   0.1921131), wk =   0.0312500
        k(    8) = (   0.1804220   0.1875000   0.2689584), wk =   0.0312500
        k(    9) = (   0.2525907   0.3125000   0.0384226), wk =   0.0312500
        k(   10) = (   0.2525907   0.3125000   0.1152679), wk =   0.0312500
        k(   11) = (   0.2525907   0.3125000   0.1921131), wk =   0.0312500
        k(   12) = (   0.2525907   0.3125000   0.2689584), wk =   0.0312500
        k(   13) = (   0.3247595   0.4375000   0.0384226), wk =   0.0312500
        k(   14) = (   0.3247595   0.4375000   0.1152679), wk =   0.0312500
        k(   15) = (   0.3247595   0.4375000   0.1921131), wk =   0.0312500
        k(   16) = (   0.3247595   0.4375000   0.2689584), wk =   0.0312500
        k(   17) = (  -0.1804220  -0.4375000   0.0384226), wk =   0.0312500
        k(   18) = (  -0.1804220  -0.4375000   0.1152679), wk =   0.0312500
        k(   19) = (  -0.1804220  -0.4375000   0.1921131), wk =   0.0312500
        k(   20) = (  -0.1804220  -0.4375000   0.2689584), wk =   0.0312500
        k(   21) = (  -0.1082532  -0.3125000   0.0384226), wk =   0.0312500
        k(   22) = (  -0.1082532  -0.3125000   0.1152679), wk =   0.0312500
        k(   23) = (  -0.1082532  -0.3125000   0.1921131), wk =   0.0312500
        k(   24) = (  -0.1082532  -0.3125000   0.2689584), wk =   0.0312500
        k(   25) = (  -0.0360844  -0.1875000   0.0384226), wk =   0.0312500
        k(   26) = (  -0.0360844  -0.1875000   0.1152679), wk =   0.0312500
        k(   27) = (  -0.0360844  -0.1875000   0.1921131), wk =   0.0312500
        k(   28) = (  -0.0360844  -0.1875000   0.2689584), wk =   0.0312500
        k(   29) = (   0.0360844  -0.0625000   0.0384226), wk =   0.0156250
        k(   30) = (   0.0360844  -0.0625000   0.1152679), wk =   0.0156250
        k(   31) = (   0.0360844  -0.0625000   0.1921131), wk =   0.0156250
        k(   32) = (   0.0360844  -0.0625000   0.2689584), wk =   0.0156250
        k(   33) = (   0.3247595   0.1875000   0.0384226), wk =   0.0156250
        k(   34) = (   0.3247595   0.1875000   0.1152679), wk =   0.0156250
        k(   35) = (   0.3247595   0.1875000   0.1921131), wk =   0.0156250
        k(   36) = (   0.3247595   0.1875000   0.2689584), wk =   0.0156250
        k(   37) = (   0.3969283   0.3125000   0.0384226), wk =   0.0312500
        k(   38) = (   0.3969283   0.3125000   0.1152679), wk =   0.0312500
        k(   39) = (   0.3969283   0.3125000   0.1921131), wk =   0.0312500
        k(   40) = (   0.3969283   0.3125000   0.2689584), wk =   0.0312500
        k(   41) = (   0.4690971   0.4375000   0.0384226), wk =   0.0312500
        k(   42) = (   0.4690971   0.4375000   0.1152679), wk =   0.0312500
        k(   43) = (   0.4690971   0.4375000   0.1921131), wk =   0.0312500
        k(   44) = (   0.4690971   0.4375000   0.2689584), wk =   0.0312500
        k(   45) = (  -0.0360844  -0.4375000   0.0384226), wk =   0.0312500
        k(   46) = (  -0.0360844  -0.4375000   0.1152679), wk =   0.0312500
        k(   47) = (  -0.0360844  -0.4375000   0.1921131), wk =   0.0312500
        k(   48) = (  -0.0360844  -0.4375000   0.2689584), wk =   0.0312500
        k(   49) = (   0.0360844  -0.3125000   0.0384226), wk =   0.0312500
        k(   50) = (   0.0360844  -0.3125000   0.1152679), wk =   0.0312500
        k(   51) = (   0.0360844  -0.3125000   0.1921131), wk =   0.0312500
        k(   52) = (   0.0360844  -0.3125000   0.2689584), wk =   0.0312500
        k(   53) = (   0.1082532  -0.1875000   0.0384226), wk =   0.0156250
        k(   54) = (   0.1082532  -0.1875000   0.1152679), wk =   0.0156250
        k(   55) = (   0.1082532  -0.1875000   0.1921131), wk =   0.0156250
        k(   56) = (   0.1082532  -0.1875000   0.2689584), wk =   0.0156250
        k(   57) = (   0.5412659   0.3125000   0.0384226), wk =   0.0156250
        k(   58) = (   0.5412659   0.3125000   0.1152679), wk =   0.0156250
        k(   59) = (   0.5412659   0.3125000   0.1921131), wk =   0.0156250
        k(   60) = (   0.5412659   0.3125000   0.2689584), wk =   0.0156250
        k(   61) = (   0.6134347   0.4375000   0.0384226), wk =   0.0312500
        k(   62) = (   0.6134347   0.4375000   0.1152679), wk =   0.0312500
        k(   63) = (   0.6134347   0.4375000   0.1921131), wk =   0.0312500
        k(   64) = (   0.6134347   0.4375000   0.2689584), wk =   0.0312500
        k(   65) = (   0.1082532  -0.4375000   0.0384226), wk =   0.0312500
        k(   66) = (   0.1082532  -0.4375000   0.1152679), wk =   0.0312500
        k(   67) = (   0.1082532  -0.4375000   0.1921131), wk =   0.0312500
        k(   68) = (   0.1082532  -0.4375000   0.2689584), wk =   0.0312500
        k(   69) = (   0.1804220  -0.3125000   0.0384226), wk =   0.0156250
        k(   70) = (   0.1804220  -0.3125000   0.1152679), wk =   0.0156250
        k(   71) = (   0.1804220  -0.3125000   0.1921131), wk =   0.0156250
        k(   72) = (   0.1804220  -0.3125000   0.2689584), wk =   0.0156250
        k(   73) = (   0.7577722   0.4375000   0.0384226), wk =   0.0156250
        k(   74) = (   0.7577722   0.4375000   0.1152679), wk =   0.0156250
        k(   75) = (   0.7577722   0.4375000   0.1921131), wk =   0.0156250
        k(   76) = (   0.7577722   0.4375000   0.2689584), wk =   0.0156250
        k(   77) = (   0.2525907  -0.4375000   0.0384226), wk =   0.0156250
        k(   78) = (   0.2525907  -0.4375000   0.1152679), wk =   0.0156250
        k(   79) = (   0.2525907  -0.4375000   0.1921131), wk =   0.0156250
        k(   80) = (   0.2525907  -0.4375000   0.2689584), wk =   0.0156250

     Dense  grid:   155203 G-vectors     FFT dimensions: (  60,  60, 100)

     Smooth grid:    29851 G-vectors     FFT dimensions: (  36,  36,  60)

     Estimated max dynamical RAM per process >       9.82 GB

     Initial potential from superposition of free atoms

     starting charge   35.99408, renormalised to   36.00000
     Starting wfcs are   26 randomized atomic wfcs

     total cpu time spent up to now is       15.7 secs

     Self-consistent Calculation

     iteration #  1     ecut=    80.00 Ry     beta= 0.70
     Davidson diagonalization with overlap
     ethr =  1.00E-02,  avg # of iterations =  2.6

     total cpu time spent up to now is       36.2 secs

     total energy              =    -611.65064197 Ry
     Harris-Foulkes estimate   =    -612.50087859 Ry
     estimated scf accuracy    <       1.13987981 Ry

     iteration #  2     ecut=    80.00 Ry     beta= 0.70
     Davidson diagonalization with overlap
     ethr =  3.17E-03,  avg # of iterations =  5.2

     total cpu time spent up to now is       67.6 secs

     total energy              =    -612.18620622 Ry
     Harris-Foulkes estimate   =    -612.80373883 Ry
     estimated scf accuracy    <       1.44398861 Ry

     iteration #  3     ecut=    80.00 Ry     beta= 0.70
     Davidson diagonalization with overlap
     ethr =  3.17E-03,  avg # of iterations =  2.0

     total cpu time spent up to now is       89.5 secs

     total energy              =    -612.41394092 Ry
     Harris-Foulkes estimate   =    -612.41414559 Ry
     estimated scf accuracy    <       0.05430188 Ry

     iteration #  4     ecut=    80.00 Ry     beta= 0.70
     Davidson diagonalization with overlap
     ethr =  1.51E-04,  avg # of iterations =  4.2

     total cpu time spent up to now is      116.8 secs

     total energy              =    -612.42889416 Ry
     Harris-Foulkes estimate   =    -612.42882371 Ry
     estimated scf accuracy    <       0.02362528 Ry

     iteration #  5     ecut=    80.00 Ry     beta= 0.70
     Davidson diagonalization with overlap
     ethr =  6.56E-05,  avg # of iterations =  1.9

     total cpu time spent up to now is      136.7 secs

     total energy              =    -612.42967242 Ry
     Harris-Foulkes estimate   =    -612.43073711 Ry
     estimated scf accuracy    <       0.00513025 Ry

     iteration #  6     ecut=    80.00 Ry     beta= 0.70
     Davidson diagonalization with overlap
     ethr =  1.43E-05,  avg # of iterations =  3.2

     total cpu time spent up to now is      158.6 secs

     total energy              =    -612.42990746 Ry
     Harris-Foulkes estimate   =    -612.43009131 Ry
     estimated scf accuracy    <       0.00399729 Ry

     iteration #  7     ecut=    80.00 Ry     beta= 0.70
     Davidson diagonalization with overlap
     ethr =  1.11E-05,  avg # of iterations =  1.1

     total cpu time spent up to now is      178.8 secs

     total energy              =    -612.43008099 Ry
     Harris-Foulkes estimate   =    -612.43002265 Ry
     estimated scf accuracy    <       0.00387204 Ry

     iteration #  8     ecut=    80.00 Ry     beta= 0.70
     Davidson diagonalization with overlap
     ethr =  1.08E-05,  avg # of iterations =  1.0

     total cpu time spent up to now is      198.8 secs

     total energy              =    -612.43010800 Ry
     Harris-Foulkes estimate   =    -612.43015617 Ry
     estimated scf accuracy    <       0.00406537 Ry

     iteration #  9     ecut=    80.00 Ry     beta= 0.70
     Davidson diagonalization with overlap
     ethr =  1.08E-05,  avg # of iterations =  1.0

     total cpu time spent up to now is      218.0 secs

     total energy              =    -612.42999324 Ry
     Harris-Foulkes estimate   =    -612.43015755 Ry
     estimated scf accuracy    <       0.00418600 Ry

     iteration # 10     ecut=    80.00 Ry     beta= 0.70
     Davidson diagonalization with overlap
     ethr =  1.08E-05,  avg # of iterations =  1.0

     total cpu time spent up to now is      237.1 secs

     total energy              =    -612.43011613 Ry
     Harris-Foulkes estimate   =    -612.43004516 Ry
     estimated scf accuracy    <       0.00396644 Ry

     iteration # 11     ecut=    80.00 Ry     beta= 0.70
     Davidson diagonalization with overlap
     ethr =  1.08E-05,  avg # of iterations =  1.0

     total cpu time spent up to now is      257.0 secs

     total energy              =    -612.43007294 Ry
     Harris-Foulkes estimate   =    -612.43014481 Ry
     estimated scf accuracy    <       0.00437570 Ry

     iteration # 12     ecut=    80.00 Ry     beta= 0.70
     Davidson diagonalization with overlap
     ethr =  1.08E-05,  avg # of iterations =  1.0

     total cpu time spent up to now is      276.2 secs

     total energy              =    -612.42908276 Ry
     Harris-Foulkes estimate   =    -612.43009723 Ry
     estimated scf accuracy    <       0.00386201 Ry

     iteration # 13     ecut=    80.00 Ry     beta= 0.70
     Davidson diagonalization with overlap
     ethr =  1.07E-05,  avg # of iterations =  2.5

     total cpu time spent up to now is      297.5 secs

     total energy              =    -612.42949169 Ry
     Harris-Foulkes estimate   =    -612.42952873 Ry
     estimated scf accuracy    <       0.00160499 Ry

     iteration # 14     ecut=    80.00 Ry     beta= 0.70
     Davidson diagonalization with overlap
     ethr =  4.46E-06,  avg # of iterations =  3.1

     total cpu time spent up to now is      323.1 secs

     total energy              =    -612.42996480 Ry
     Harris-Foulkes estimate   =    -612.42979599 Ry
     estimated scf accuracy    <       0.00110594 Ry

     iteration # 15     ecut=    80.00 Ry     beta= 0.70
     Davidson diagonalization with overlap
     ethr =  3.07E-06,  avg # of iterations =  2.0

     total cpu time spent up to now is      343.7 secs

     total energy              =    -612.42941427 Ry
     Harris-Foulkes estimate   =    -612.43000251 Ry
     estimated scf accuracy    <       0.00145615 Ry

     iteration # 16     ecut=    80.00 Ry     beta= 0.70
     Davidson diagonalization with overlap
     ethr =  3.07E-06,  avg # of iterations =  4.0

     total cpu time spent up to now is      371.2 secs

     total energy              =    -612.43089311 Ry
     Harris-Foulkes estimate   =    -612.42967593 Ry
     estimated scf accuracy    <       0.00218805 Ry

     iteration # 17     ecut=    80.00 Ry     beta= 0.70
     Davidson diagonalization with overlap
     ethr =  3.07E-06,  avg # of iterations =  4.0

     total cpu time spent up to now is      412.1 secs

     total energy              =    -612.43211573 Ry
     Harris-Foulkes estimate   =    -612.43244023 Ry
     estimated scf accuracy    <       0.01905141 Ry

     iteration # 18     ecut=    80.00 Ry     beta= 0.70
     Davidson diagonalization with overlap
     ethr =  3.07E-06,  avg # of iterations =  1.0

     total cpu time spent up to now is      432.1 secs

     total energy              =    -612.43191353 Ry
     Harris-Foulkes estimate   =    -612.43211768 Ry
     estimated scf accuracy    <       0.01756164 Ry

     iteration # 19     ecut=    80.00 Ry     beta= 0.70
     Davidson diagonalization with overlap
     ethr =  3.07E-06,  avg # of iterations =  1.0

     total cpu time spent up to now is      451.2 secs

     total energy              =    -612.43023607 Ry
     Harris-Foulkes estimate   =    -612.43192577 Ry
     estimated scf accuracy    <       0.01551057 Ry

     iteration # 20     ecut=    80.00 Ry     beta= 0.70
     Davidson diagonalization with overlap
     ethr =  3.07E-06,  avg # of iterations =  1.7

     total cpu time spent up to now is      470.7 secs

     total energy              =    -612.43002983 Ry
     Harris-Foulkes estimate   =    -612.43031614 Ry
     estimated scf accuracy    <       0.00862002 Ry

     iteration # 21     ecut=    80.00 Ry     beta= 0.70
     Davidson diagonalization with overlap
     ethr =  3.07E-06,  avg # of iterations =  3.0

     total cpu time spent up to now is      496.9 secs

     total energy              =    -612.43014194 Ry
     Harris-Foulkes estimate   =    -612.43022746 Ry
     estimated scf accuracy    <       0.00470234 Ry

     iteration # 22     ecut=    80.00 Ry     beta= 0.70
     Davidson diagonalization with overlap
     ethr =  3.07E-06,  avg # of iterations =  1.0

     total cpu time spent up to now is      516.1 secs

     total energy              =    -612.42953378 Ry
     Harris-Foulkes estimate   =    -612.43015326 Ry
     estimated scf accuracy    <       0.00435454 Ry

     iteration # 23     ecut=    80.00 Ry     beta= 0.70
     Davidson diagonalization with overlap
     ethr =  3.07E-06,  avg # of iterations =  3.0

     total cpu time spent up to now is      537.9 secs

     total energy              =    -612.42959401 Ry
     Harris-Foulkes estimate   =    -612.42962892 Ry
     estimated scf accuracy    <       0.00171590 Ry

     iteration # 24     ecut=    80.00 Ry     beta= 0.70
     Davidson diagonalization with overlap
     ethr =  3.07E-06,  avg # of iterations =  1.0

     total cpu time spent up to now is      557.1 secs

     total energy              =    -612.42954905 Ry
     Harris-Foulkes estimate   =    -612.42961548 Ry
     estimated scf accuracy    <       0.00152116 Ry

     iteration # 25     ecut=    80.00 Ry     beta= 0.70
     Davidson diagonalization with overlap
     ethr =  3.07E-06,  avg # of iterations =  1.0

     total cpu time spent up to now is      577.0 secs

     total energy              =    -612.42953022 Ry
     Harris-Foulkes estimate   =    -612.42956878 Ry
     estimated scf accuracy    <       0.00116416 Ry

     iteration # 26     ecut=    80.00 Ry     beta= 0.70
     Davidson diagonalization with overlap
     ethr =  3.07E-06,  avg # of iterations =  1.0

     total cpu time spent up to now is      596.1 secs

     total energy              =    -612.42952283 Ry
     Harris-Foulkes estimate   =    -612.42955244 Ry
     estimated scf accuracy    <       0.00085978 Ry

     iteration # 27     ecut=    80.00 Ry     beta= 0.70
     Davidson diagonalization with overlap
     ethr =  2.39E-06,  avg # of iterations =  1.0

     total cpu time spent up to now is      615.3 secs

     total energy              =    -612.42949727 Ry
     Harris-Foulkes estimate   =    -612.42953870 Ry
     estimated scf accuracy    <       0.00068606 Ry

     iteration # 28     ecut=    80.00 Ry     beta= 0.70
     Davidson diagonalization with overlap
     ethr =  1.91E-06,  avg # of iterations =  1.0

     total cpu time spent up to now is      635.2 secs

     total energy              =    -612.42947717 Ry
     Harris-Foulkes estimate   =    -612.42951526 Ry
     estimated scf accuracy    <       0.00039186 Ry

     iteration # 29     ecut=    80.00 Ry     beta= 0.70
     Davidson diagonalization with overlap
     ethr =  1.09E-06,  avg # of iterations =  1.6

     total cpu time spent up to now is      654.7 secs

     total energy              =    -612.42944441 Ry
     Harris-Foulkes estimate   =    -612.42949401 Ry
     estimated scf accuracy    <       0.00021630 Ry

     iteration # 30     ecut=    80.00 Ry     beta= 0.70
     Davidson diagonalization with overlap
     ethr =  6.01E-07,  avg # of iterations =  4.0

     total cpu time spent up to now is      682.4 secs

     total energy              =    -612.42954212 Ry
     Harris-Foulkes estimate   =    -612.42953335 Ry
     estimated scf accuracy    <       0.00003446 Ry

     iteration # 31     ecut=    80.00 Ry     beta= 0.70
     Davidson diagonalization with overlap
     ethr =  9.57E-08,  avg # of iterations =  3.9

     total cpu time spent up to now is      705.6 secs

     total energy              =    -612.42954199 Ry
     Harris-Foulkes estimate   =    -612.42955123 Ry
     estimated scf accuracy    <       0.00009588 Ry

     iteration # 32     ecut=    80.00 Ry     beta= 0.70
     Davidson diagonalization with overlap
     ethr =  9.57E-08,  avg # of iterations =  1.0

     total cpu time spent up to now is      725.5 secs

     total energy              =    -612.42953170 Ry
     Harris-Foulkes estimate   =    -612.42954226 Ry
     estimated scf accuracy    <       0.00006717 Ry

     iteration # 33     ecut=    80.00 Ry     beta= 0.70
     Davidson diagonalization with overlap
     ethr =  9.57E-08,  avg # of iterations =  1.0

     total cpu time spent up to now is      744.7 secs

     total energy              =    -612.42952975 Ry
     Harris-Foulkes estimate   =    -612.42953228 Ry
     estimated scf accuracy    <       0.00003450 Ry

     iteration # 34     ecut=    80.00 Ry     beta= 0.70
     Davidson diagonalization with overlap
     ethr =  9.57E-08,  avg # of iterations =  1.0

     total cpu time spent up to now is      764.6 secs

     total energy              =    -612.42953109 Ry
     Harris-Foulkes estimate   =    -612.42953048 Ry
     estimated scf accuracy    <       0.00001999 Ry

     iteration # 35     ecut=    80.00 Ry     beta= 0.70
     Davidson diagonalization with overlap
     ethr =  5.55E-08,  avg # of iterations =  1.0

     total cpu time spent up to now is      783.7 secs

     total energy              =    -612.42956790 Ry
     Harris-Foulkes estimate   =    -612.42953140 Ry
     estimated scf accuracy    <       0.00002217 Ry

     iteration # 36     ecut=    80.00 Ry     beta= 0.70
     Davidson diagonalization with overlap
     ethr =  5.55E-08,  avg # of iterations =  4.0

     total cpu time spent up to now is      820.3 secs

     total energy              =    -612.42949777 Ry
     Harris-Foulkes estimate   =    -612.42958058 Ry
     estimated scf accuracy    <       0.00031683 Ry

     iteration # 37     ecut=    80.00 Ry     beta= 0.70
     Davidson diagonalization with overlap
     ethr =  5.55E-08,  avg # of iterations =  4.0

     total cpu time spent up to now is      861.2 secs

     End of self-consistent calculation

          k = 0.1083 0.0625 0.0384 (  3752 PWs)   bands (ev):

    -6.1479  -5.3436  -3.7653  -3.7445  -3.7237  -3.6883  -3.6755  -3.5206
    -3.5136  -3.4345  -3.4130  -2.1221   2.8651   7.8942   8.3363   8.7805
     9.5070   9.5728  12.5544  14.6675

          k = 0.1083 0.0625 0.1153 (  3745 PWs)   bands (ev):

    -6.0634  -5.3729  -3.7564  -3.7420  -3.7082  -3.6955  -3.6809  -3.5052
    -3.5039  -3.4422  -3.4184  -2.4127   3.3888   7.9944   8.1310   8.5462
     9.3448   9.4781  13.0066  14.7144

          k = 0.1083 0.0625 0.1921 (  3733 PWs)   bands (ev):

    -5.9122  -5.4418  -3.7456  -3.7361  -3.7076  -3.6994  -3.6473  -3.4877
    -3.4728  -3.4583  -3.4287  -2.8169   4.2528   7.3351   8.1861   8.6474
     9.0876   9.3066  13.6469  14.7497

          k = 0.1083 0.0625 0.2690 (  3732 PWs)   bands (ev):

    -5.7301  -5.5624  -3.7346  -3.7263  -3.7213  -3.7128  -3.5551  -3.4920
    -3.4645  -3.4471  -3.3913  -3.1741   5.2779   6.3385   8.4497   8.7322
     8.8904   9.0908  14.2486  14.6363

          k = 0.1804 0.1875 0.0384 (  3743 PWs)   bands (ev):

    -5.8421  -5.2789  -3.7268  -3.7120  -3.6541  -3.6265  -3.5535  -3.5326
    -3.5039  -3.4586  -3.4017  -1.8792   3.3558   6.1946   7.0469   7.8645
     9.1065   9.2020  13.8338  15.7798

          k = 0.1804 0.1875 0.1153 (  3742 PWs)   bands (ev):

    -5.7753  -5.2953  -3.7258  -3.7056  -3.6640  -3.6327  -3.5621  -3.5140
    -3.4914  -3.4426  -3.3966  -2.1357   3.7472   6.3435   6.8292   7.9001
     8.9872   9.0947  13.9688  15.8295

          k = 0.1804 0.1875 0.1921 (  3737 PWs)   bands (ev):

    -5.6595  -5.3363  -3.7195  -3.6937  -3.6767  -3.6442  -3.5628  -3.5201
    -3.4761  -3.4332  -3.3211  -2.5118   4.3653   6.2123   6.8852   8.0405
     8.6539   8.8689  14.2994  15.7711

          k = 0.1804 0.1875 0.2690 (  3734 PWs)   bands (ev):

    -5.5271  -5.4130  -3.7067  -3.6916  -3.6771  -3.6598  -3.5538  -3.5369
    -3.4608  -3.4450  -3.1467  -2.8727   5.0380   5.6714   7.4182   8.0384
     8.3275   8.5854  14.8104  15.3780

          k = 0.2526 0.3125 0.0384 (  3722 PWs)   bands (ev):

    -5.5234  -5.2283  -3.7082  -3.6943  -3.6077  -3.5551  -3.5486  -3.5108
    -3.4625  -3.4041  -3.0048  -1.6107   3.7438   4.8716   5.6613   7.1334
     8.3567   8.7864  14.7401  15.6264

          k = 0.2526 0.3125 0.1153 (  3737 PWs)   bands (ev):

    -5.4825  -5.2328  -3.7112  -3.6845  -3.6263  -3.5595  -3.5521  -3.5019
    -3.4573  -3.4117  -2.9479  -1.7855   3.6900   5.0098   5.7621   7.2336
     8.4531   8.6558  14.4134  15.6207

          k = 0.2526 0.3125 0.1921 (  3731 PWs)   bands (ev):

    -5.4143  -5.2480  -3.7141  -3.6667  -3.6518  -3.5768  -3.5421  -3.5003
    -3.4504  -3.4222  -2.8267  -2.0675   3.7556   4.7053   6.4233   7.4436
     8.2789   8.5147  14.2466  15.4375

          k = 0.2526 0.3125 0.2690 (  3736 PWs)   bands (ev):

    -5.3410  -5.2828  -3.7073  -3.6877  -3.6312  -3.6018  -3.5265  -3.5103
    -3.4419  -3.4322  -2.6334  -2.3709   3.9716   4.3076   7.2187   7.7293
     7.9012   8.1795  14.4592  14.9547

          k = 0.3248 0.4375 0.0384 (  3710 PWs)   bands (ev):

    -5.3790  -5.2117  -3.7156  -3.6890  -3.5872  -3.5625  -3.5111  -3.4940
    -3.4299  -3.3955  -2.3117  -1.6918   3.3006   4.4506   5.5405   6.8173
     7.5642   8.5610  15.0085  15.1815

          k = 0.3248 0.4375 0.1153 (  3717 PWs)   bands (ev):

    -5.3525  -5.2107  -3.7181  -3.6789  -3.6108  -3.5659  -3.5217  -3.4696
    -3.4289  -3.4031  -2.2791  -1.7494   3.1389   4.1339   6.0133   6.9553
     7.8590   8.4032  14.4259  15.0986

          k = 0.3248 0.4375 0.1921 (  3731 PWs)   bands (ev):

    -5.3092  -5.2145  -3.7229  -3.6603  -3.6515  -3.5441  -3.5348  -3.4614
    -3.4271  -3.4126  -2.2121  -1.8546   3.0339   3.7075   6.6688   7.2482
     7.9853   8.2524  14.0332  14.9796

          k = 0.3248 0.4375 0.2690 (  3736 PWs)   bands (ev):

    -5.2642  -5.2310  -3.7187  -3.6978  -3.6155  -3.5769  -3.5011  -3.4738
    -3.4241  -3.4194  -2.1111  -1.9847   3.0956   3.3335   7.2270   7.6486
     7.7248   8.1395  14.1046  14.5522

          k =-0.1804-0.4375 0.0384 (  3709 PWs)   bands (ev):

    -5.4263  -5.2164  -3.7119  -3.6902  -3.5949  -3.5578  -3.5237  -3.5029
    -3.4419  -3.3988  -2.6415  -1.5926   3.4972   4.6944   5.3950   6.9132
     7.9089   8.6393  14.9126  15.3925

          k =-0.1804-0.4375 0.1153 (  3725 PWs)   bands (ev):

    -5.3949  -5.2174  -3.7146  -3.6805  -3.6155  -3.5623  -3.5336  -3.4826
    -3.4393  -3.4064  -2.5920  -1.7057   3.3508   4.4820   5.8372   7.0334
     8.1243   8.4898  14.4286  15.2994

          k =-0.1804-0.4375 0.1921 (  3733 PWs)   bands (ev):

    -5.3432  -5.2250  -3.7191  -3.6626  -3.6498  -3.5551  -3.5381  -3.4765
    -3.4356  -3.4163  -2.4891  -1.9001   3.2988   4.0851   6.5596   7.2803
     8.1023   8.3651  14.1122  15.1466

          k =-0.1804-0.4375 0.2690 (  3731 PWs)   bands (ev):

    -5.2889  -5.2475  -3.7142  -3.6937  -3.6200  -3.5846  -3.5110  -3.4877
    -3.4308  -3.4242  -2.3304  -2.1244   3.4198   3.6989   7.2492   7.6489
     7.7720   8.1471  14.2325  14.6969

          k =-0.1083-0.3125 0.0384 (  3732 PWs)   bands (ev):

    -5.6680  -5.2492  -3.7118  -3.7015  -3.6278  -3.5858  -3.5517  -3.5096
    -3.4850  -3.4128  -3.2930  -1.7278   3.6520   5.3602   6.3108   7.4601
     8.7727   8.9834  14.3750  15.8315

          k =-0.1083-0.3125 0.1153 (  3733 PWs)   bands (ev):

    -5.6143  -5.2590  -3.7140  -3.6922  -3.6432  -3.5936  -3.5427  -3.5178
    -3.4769  -3.4184  -3.2388  -1.9512   3.8588   5.5818   6.1494   7.5357
     8.7426   8.8747  14.2861  15.8961

          k =-0.1083-0.3125 0.1921 (  3734 PWs)   bands (ev):

    -5.5232  -5.2856  -3.7128  -3.6758  -3.6616  -3.6084  -3.5404  -3.5257
    -3.4660  -3.4280  -3.1197  -2.2930   4.1873   5.4426   6.4786   7.7141
     8.4797   8.6674  14.3540  15.7421

          k =-0.1083-0.3125 0.2690 (  3740 PWs)   bands (ev):

    -5.4224  -5.3389  -3.7027  -3.6847  -3.6512  -3.6284  -3.5394  -3.5337
    -3.4532  -3.4400  -2.9221  -2.6395   4.5803   5.0149   7.2126   7.8902
     8.0584   8.3295  14.7058  15.2466

          k =-0.0361-0.1875 0.0384 (  3750 PWs)   bands (ev):

    -6.0134  -5.3131  -3.7471  -3.7281  -3.6827  -3.6680  -3.6342  -3.5299
    -3.5125  -3.4527  -3.4096  -2.0188   3.0718   7.1058   7.7593   8.3117
     9.3496   9.4070  13.1954  15.2953

          k =-0.0361-0.1875 0.1153 (  3743 PWs)   bands (ev):

    -5.9359  -5.3364  -3.7424  -3.7242  -3.6840  -3.6701  -3.6306  -3.5072
    -3.5025  -3.4597  -3.4147  -2.2964   3.5517   7.2178   7.5250   8.2673
     9.1831   9.3002  13.5028  15.3358

          k =-0.0361-0.1875 0.1921 (  3739 PWs)   bands (ev):

    -5.7991  -5.3926  -3.7329  -3.7162  -3.6932  -3.6763  -3.6054  -3.4985
    -3.4764  -3.4460  -3.4150  -2.6906   4.3355   6.8955   7.5273   8.3662
     8.8422   9.1033  14.0263  15.3356

          k =-0.0361-0.1875 0.2690 (  3736 PWs)   bands (ev):

    -5.6378  -5.4935  -3.7206  -3.7079  -3.7027  -3.6893  -3.5601  -3.5197
    -3.4639  -3.4470  -3.2985  -3.0504   5.2386   6.1254   7.8918   8.3233
     8.6338   8.8600  14.6230  15.1161

          k = 0.0361-0.0625 0.0384 (  3743 PWs)   bands (ev):

    -6.2212  -5.3617  -3.7746  -3.7548  -3.7477  -3.6959  -3.6923  -3.5153
    -3.5128  -3.4224  -3.4147  -2.1768   2.7578   8.3761   8.5920   9.2127
     9.5929   9.6651  12.0838  14.2364

          k = 0.0361-0.0625 0.1153 (  3746 PWs)   bands (ev):

    -6.1332  -5.3945  -3.7615  -3.7528  -3.7330  -3.7030  -3.6997  -3.5036
    -3.5028  -3.4285  -3.4198  -2.4737   3.3004   8.4409   8.5380   8.6692
     9.4852   9.5787  12.6566  14.2902

          k = 0.0361-0.0625 0.1921 (  3749 PWs)   bands (ev):

    -5.9750  -5.4706  -3.7517  -3.7478  -3.7157  -3.7121  -3.6703  -3.4855
    -3.4818  -3.4414  -3.4303  -2.8837   4.1975   7.5178   8.6216   8.8136
     9.3025   9.4211  13.3645  14.3465

          k = 0.0361-0.0625 0.2690 (  3727 PWs)   bands (ev):

    -5.7822  -5.6021  -3.7420  -3.7388  -3.7295  -3.7262  -3.5466  -3.4664
    -3.4653  -3.4460  -3.4384  -3.2437   5.2722   6.4074   8.8339   9.0061
     9.0729   9.2194  13.9552  14.2825

          k = 0.3248 0.1875 0.0384 (  3730 PWs)   bands (ev):

    -5.5654  -5.2347  -3.7194  -3.6774  -3.6117  -3.5881  -3.5502  -3.5007
    -3.4700  -3.4299  -3.1092  -1.6247   3.8248   5.4813   5.5833   6.9201
     8.4194   8.5810  15.0620  16.4434

          k = 0.3248 0.1875 0.1153 (  3726 PWs)   bands (ev):

    -5.5203  -5.2405  -3.7068  -3.6843  -3.6198  -3.6050  -3.5283  -3.5208
    -3.4561  -3.4398  -3.0523  -1.8219   3.9101   5.4261   5.8969   6.8782
     8.2426   8.6761  14.9566  16.3199

          k = 0.3248 0.1875 0.1921 (  3737 PWs)   bands (ev):

    -5.4449  -5.2585  -3.6883  -3.6850  -3.6353  -3.6177  -3.5394  -3.5254
    -3.4453  -3.4445  -2.9302  -2.1322   4.0954   5.1127   6.5915   6.9688
     7.9437   8.5901  14.9477  16.0499

          k = 0.3248 0.1875 0.2690 (  3725 PWs)   bands (ev):

    -5.3634  -5.2981  -3.6812  -3.6689  -3.6461  -3.6309  -3.5474  -3.5399
    -3.4409  -3.4401  -2.7321  -2.4575   4.3777   4.7333   7.2049   7.3226
     7.6617   8.1611  15.1926  15.6262

          k = 0.3969 0.3125 0.0384 (  3724 PWs)   bands (ev):

    -5.3686  -5.2165  -3.7386  -3.6470  -3.5711  -3.5505  -3.5388  -3.5094
    -3.4512  -3.4227  -2.4464  -1.5180   3.7663   4.6295   5.5880   5.9866
     7.7324   7.8326  15.4599  16.1987

          k = 0.3969 0.3125 0.1153 (  3717 PWs)   bands (ev):

    -5.3426  -5.2141  -3.7217  -3.6599  -3.5976  -3.5542  -3.5328  -3.5002
    -3.4441  -3.4344  -2.3979  -1.6108   3.5966   4.4313   5.7686   6.3502
     7.5604   8.0704  15.2748  16.2582

          k = 0.3969 0.3125 0.1921 (  3727 PWs)   bands (ev):

    -5.3006  -5.2153  -3.6943  -3.6695  -3.6289  -3.5681  -3.5271  -3.4987
    -3.4473  -3.4333  -2.2994  -1.7738   3.4955   4.0969   5.9955   6.9968
     7.2440   8.3153  15.0800  16.0361

          k = 0.3969 0.3125 0.2690 (  3725 PWs)   bands (ev):

    -5.2581  -5.2283  -3.6807  -3.6680  -3.6322  -3.5960  -3.5215  -3.5114
    -3.4404  -3.4333  -2.1521  -1.9677   3.5561   3.7730   6.3310   6.7391
     7.7760   8.2399  15.1426  15.5371

          k = 0.4691 0.4375 0.0384 (  3709 PWs)   bands (ev):

    -5.3264  -5.2168  -3.7437  -3.6439  -3.5596  -3.5509  -3.5267  -3.5030
    -3.4531  -3.4205  -2.1377  -1.6091   3.6182   4.5117   5.4137   6.1629
     7.3853   7.6791  15.2402  16.4816

          k = 0.4691 0.4375 0.1153 (  3719 PWs)   bands (ev):

    -5.3050  -5.2123  -3.7260  -3.6566  -3.5952  -3.5404  -3.5340  -3.4817
    -3.4501  -3.4335  -2.1058  -1.6535   3.4513   4.2153   5.5302   6.6258
     7.3861   7.7994  15.1279  16.5552

          k = 0.4691 0.4375 0.1921 (  3710 PWs)   bands (ev):

    -5.2708  -5.2091  -3.6977  -3.6640  -3.6346  -3.5560  -3.5199  -3.4786
    -3.4490  -3.4407  -2.0424  -1.7363   3.3139   3.8276   5.7786   7.0065
     7.3034   8.1548  14.9822  16.1871

          k = 0.4691 0.4375 0.2690 (  3729 PWs)   bands (ev):

    -5.2373  -5.2157  -3.6830  -3.6669  -3.6346  -3.5911  -3.5048  -3.4912
    -3.4449  -3.4406  -1.9510  -1.8426   3.3239   3.5048   6.1378   6.5678
     7.9095   8.2360  15.0673  15.5288

          k =-0.0361-0.4375 0.0384 (  3727 PWs)   bands (ev):

    -5.4495  -5.2216  -3.7296  -3.6569  -3.5894  -3.5675  -3.5464  -3.5079
    -3.4568  -3.4259  -2.8016  -1.5275   3.8973   4.9727   5.4739   6.3513
     8.0524   8.2023  15.6283  15.9696

          k =-0.0361-0.4375 0.1153 (  3727 PWs)   bands (ev):

    -5.4153  -5.2228  -3.7144  -3.6682  -3.6054  -3.5792  -3.5294  -3.5153
    -3.4460  -3.4372  -2.7446  -1.6765   3.7962   4.8503   5.9429   6.3523
     7.8512   8.3963  15.3392  16.0568

          k =-0.0361-0.4375 0.1921 (  3730 PWs)   bands (ev):

    -5.3590  -5.2312  -3.6891  -3.6770  -3.6268  -3.5916  -3.5371  -3.5141
    -3.4462  -3.4345  -2.6258  -1.9232   3.7949   4.5541   6.4003   6.7730
     7.5217   8.4777  15.1367  15.9251

          k =-0.0361-0.4375 0.2690 (  3730 PWs)   bands (ev):

    -5.3001  -5.2555  -3.6784  -3.6684  -3.6342  -3.6100  -3.5396  -3.5300
    -3.4385  -3.4327  -2.4410  -2.1969   3.9440   4.2170   6.7029   7.0590
     7.6115   8.2089  15.2234  15.5693

          k = 0.0361-0.3125 0.0384 (  3729 PWs)   bands (ev):

    -5.7040  -5.2551  -3.7121  -3.7037  -3.6325  -3.6101  -3.5486  -3.4999
    -3.4826  -3.4405  -3.3265  -1.7560   3.5986   5.7666   6.3050   7.4652
     8.8288   8.8893  14.4164  16.3452

          k = 0.0361-0.3125 0.1153 (  3739 PWs)   bands (ev):

    -5.6473  -5.2661  -3.7065  -3.7022  -3.6424  -3.6205  -3.5385  -3.5155
    -3.4719  -3.4400  -3.2792  -1.9886   3.8727   5.9465   6.2106   7.4438
     8.6744   8.8884  14.4364  16.3574

          k = 0.0361-0.3125 0.1921 (  3735 PWs)   bands (ev):

    -5.5507  -5.2955  -3.7040  -3.6859  -3.6565  -3.6323  -3.5406  -3.5323
    -3.4611  -3.4402  -3.1672  -2.3405   4.2955   5.6893   6.6319   7.5449
     8.4069   8.6662  14.6159  16.1101

          k = 0.0361-0.3125 0.2690 (  3742 PWs)   bands (ev):

    -5.4432  -5.3534  -3.6926  -3.6765  -3.6629  -3.6462  -3.5472  -3.5447
    -3.4514  -3.4440  -2.9742  -2.6922   4.7638   5.2397   7.3171   7.7383
     8.0720   8.2035  15.0261  15.5813

          k = 0.1083-0.1875 0.0384 (  3748 PWs)   bands (ev):

    -5.9525  -5.3003  -3.7412  -3.7199  -3.6733  -3.6379  -3.6201  -3.5357
    -3.5090  -3.4559  -3.4092  -1.9707   3.1701   6.6818   7.6540   8.0635
     9.2634   9.4005  13.4095  15.4256

          k = 0.1083-0.1875 0.1153 (  3732 PWs)   bands (ev):

    -5.8786  -5.3212  -3.7379  -3.7154  -3.6797  -3.6457  -3.6106  -3.5123
    -3.5002  -3.4535  -3.4156  -2.2415   3.6234   6.7986   7.3446   8.1557
     9.1008   9.2871  13.6490  15.4731

          k = 0.1083-0.1875 0.1921 (  3741 PWs)   bands (ev):

    -5.7489  -5.3718  -3.7293  -3.7062  -3.6898  -3.6595  -3.5896  -3.5051
    -3.4844  -3.4280  -3.3994  -2.6303   4.3567   6.6375   7.2438   8.3295
     8.7208   9.0836  14.0991  15.4632

          k = 0.1083-0.1875 0.2690 (  3737 PWs)   bands (ev):

    -5.5976  -5.4640  -3.7165  -3.7025  -3.6927  -3.6763  -3.5584  -3.5268
    -3.4649  -3.4451  -3.2510  -2.9916   5.1843   5.9754   7.6509   8.1892
     8.5640   8.8284  14.6657  15.1905

          k = 0.5413 0.3125 0.0384 (  3722 PWs)   bands (ev):

    -5.2683  -5.2358  -3.7618  -3.5811  -3.5589  -3.5430  -3.5267  -3.5171
    -3.4773  -3.4363  -1.8651  -1.6438   4.2034   4.2932   4.6862   6.5229
     7.0168   7.0367  14.9365  17.2694

          k = 0.5413 0.3125 0.1153 (  3711 PWs)   bands (ev):

    -5.2536  -5.2261  -3.7417  -3.6084  -3.5908  -3.5461  -3.5041  -3.4999
    -3.4742  -3.4553  -1.8477  -1.6579   3.9391   4.1116   4.7271   6.7655
     7.0074   7.4292  15.3084  16.9249

          k = 0.5413 0.3125 0.1921 (  3718 PWs)   bands (ev):

    -5.2314  -5.2132  -3.7041  -3.6337  -3.6216  -3.5615  -3.4954  -3.4899
    -3.4742  -3.4664  -1.8149  -1.6861   3.6722   3.8121   4.9791   6.3379
     7.6212   7.9285  15.8817  16.4071

          k = 0.5413 0.3125 0.2690 (  3710 PWs)   bands (ev):

    -5.2129  -5.2065  -3.6560  -3.6470  -3.6402  -3.6006  -3.4968  -3.4964
    -3.4664  -3.4623  -1.7718  -1.7261   3.5448   3.5967   5.3693   5.8426
     8.0967   8.2125  16.0658  16.0935

          k = 0.6134 0.4375 0.0384 (  3713 PWs)   bands (ev):

    -5.3101  -5.2214  -3.7536  -3.6112  -3.5593  -3.5472  -3.5340  -3.5130
    -3.4616  -3.4314  -2.1345  -1.5429   3.9320   4.4065   5.2054   6.1131
     7.3052   7.4212  15.1452  16.8054

          k = 0.6134 0.4375 0.1153 (  3716 PWs)   bands (ev):

    -5.2903  -5.2154  -3.7345  -3.6316  -3.5887  -3.5510  -3.5201  -3.5011
    -3.4542  -3.4473  -2.0981  -1.5930   3.7272   4.2188   5.2064   6.6176
     7.0779   7.7645  15.3809  16.5153

          k = 0.6134 0.4375 0.1921 (  3721 PWs)   bands (ev):

    -5.2592  -5.2095  -3.6996  -3.6509  -3.6210  -3.5645  -3.5136  -3.4975
    -3.4605  -3.4457  -2.0263  -1.6856   3.5451   3.9163   5.3931   6.6425
     7.3423   8.1445  15.5682  16.1860

          k = 0.6134 0.4375 0.2690 (  3717 PWs)   bands (ev):

    -5.2297  -5.2123  -3.6646  -3.6567  -3.6360  -3.5979  -3.5118  -3.5072
    -3.4521  -3.4450  -1.9239  -1.8035   3.5124   3.6486   5.7404   6.1808
     7.9487   8.2514  15.6068  15.8534

          k = 0.1083-0.4375 0.0384 (  3725 PWs)   bands (ev):

    -5.4416  -5.2196  -3.7201  -3.6781  -3.5884  -3.5543  -3.5422  -3.5083
    -3.4521  -3.4127  -2.7493  -1.5498   3.7251   4.8224   5.4755   6.5775
     8.0839   8.3384  15.2910  15.9810

          k = 0.1083-0.4375 0.1153 (  3724 PWs)   bands (ev):

    -5.4084  -5.2208  -3.7083  -3.6835  -3.6116  -3.5561  -3.5434  -3.4999
    -3.4454  -3.4219  -2.6946  -1.6861   3.5961   4.7119   5.8404   6.6860
     8.0980   8.3427  14.8480  15.9927

          k = 0.1083-0.4375 0.1921 (  3730 PWs)   bands (ev):

    -5.3537  -5.2290  -3.7020  -3.6726  -3.6406  -3.5713  -3.5360  -3.4982
    -3.4414  -3.4281  -2.5807  -1.9148   3.5723   4.3650   6.4524   7.0091
     7.7922   8.4339  14.5998  15.7293

          k = 0.1083-0.4375 0.2690 (  3726 PWs)   bands (ev):

    -5.2964  -5.2528  -3.6968  -3.6798  -3.6297  -3.5969  -3.5249  -3.5102
    -3.4362  -3.4304  -2.4040  -2.1722   3.7135   3.9963   6.9471   7.3422
     7.6615   8.1954  14.7342  15.2004

          k = 0.1804-0.3125 0.0384 (  3728 PWs)   bands (ev):

    -5.6035  -5.2393  -3.7135  -3.6926  -3.6217  -3.5623  -3.5532  -3.5145
    -3.4757  -3.4012  -3.1898  -1.6760   3.7219   5.0183   6.0178   7.4320
     8.5852   9.0149  14.4296  15.5203

          k = 0.1804-0.3125 0.1153 (  3734 PWs)   bands (ev):

    -5.5553  -5.2468  -3.7172  -3.6823  -3.6378  -3.5712  -3.5513  -3.5092
    -3.4714  -3.4084  -3.1325  -1.8802   3.7997   5.2759   5.9019   7.5380
     8.6321   8.8754  14.2141  15.5658

          k = 0.1804-0.3125 0.1921 (  3733 PWs)   bands (ev):

    -5.4743  -5.2684  -3.7180  -3.6633  -3.6630  -3.5885  -3.5434  -3.5097
    -3.4627  -3.4209  -3.0095  -2.1997   3.9870   5.0832   6.3861   7.7387
     8.4716   8.6282  14.1574  15.4245

          k = 0.1804-0.3125 0.2690 (  3734 PWs)   bands (ev):

    -5.3857  -5.3135  -3.7092  -3.6893  -3.6386  -3.6122  -3.5311  -3.5183
    -3.4504  -3.4358  -2.8099  -2.5317   4.2851   4.6695   7.1932   7.9586
     8.0116   8.3230  14.4421  14.9588

          k = 0.7578 0.4375 0.0384 (  3705 PWs)   bands (ev):

    -5.3515  -5.2128  -3.7279  -3.6740  -3.5700  -3.5607  -3.5157  -3.4958
    -3.4390  -3.4062  -2.1830  -1.6826   3.3956   4.4555   5.5954   6.4164
     7.4468   8.1463  15.2919  15.7396

          k = 0.7578 0.4375 0.1153 (  3712 PWs)   bands (ev):

    -5.3277  -5.2101  -3.7160  -3.6784  -3.6038  -3.5529  -3.5265  -3.4716
    -3.4381  -3.4161  -2.1546  -1.7257   3.2329   4.1344   5.9187   6.6939
     7.7146   8.0140  14.7656  15.7419

          k = 0.7578 0.4375 0.1921 (  3722 PWs)   bands (ev):

    -5.2891  -5.2106  -3.7090  -3.6625  -3.6496  -3.5480  -3.5272  -3.4650
    -3.4361  -3.4260  -2.0972  -1.8064   3.1122   3.7161   6.3075   7.2359
     7.5329   8.1890  14.4403  15.5325

          k = 0.7578 0.4375 0.2690 (  3729 PWs)   bands (ev):

    -5.2499  -5.2223  -3.7041  -3.6850  -3.6246  -3.5827  -3.5005  -3.4781
    -3.4331  -3.4298  -2.0124  -1.9093   3.1488   3.3612   6.7072   7.1288
     7.8304   8.2038  14.5159  14.9900

          k = 0.2526-0.4375 0.0384 (  3720 PWs)   bands (ev):

    -5.4049  -5.2133  -3.7141  -3.6884  -3.5976  -3.5613  -3.5135  -3.4966
    -3.4317  -3.3925  -2.4851  -1.6477   3.3378   4.5484   5.4296   7.0360
     7.7200   8.7481  14.7403  15.1083

          k = 0.2526-0.4375 0.1153 (  3718 PWs)   bands (ev):

    -5.3758  -5.2136  -3.7211  -3.6742  -3.6155  -3.5701  -3.5239  -3.4725
    -3.4308  -3.3992  -2.4436  -1.7319   3.1814   4.2607   5.9243   7.1493
     7.9872   8.5947  14.2693  14.9361

          k = 0.2526-0.4375 0.1921 (  3724 PWs)   bands (ev):

    -5.3280  -5.2198  -3.7270  -3.6626  -3.6479  -3.5457  -3.5395  -3.4641
    -3.4284  -3.4090  -2.3578  -1.8810   3.1005   3.8398   6.6745   7.3641
     8.1847   8.3244  13.8952  14.8263

          k = 0.2526-0.4375 0.2690 (  3732 PWs)   bands (ev):

    -5.2779  -5.2399  -3.7223  -3.7008  -3.6136  -3.5773  -3.5042  -3.4761
    -3.4243  -3.4178  -2.2266  -2.0590   3.1923   3.4541   7.4407   7.6572
     7.9931   8.0086  13.9854  14.4286

     highest occupied, lowest unoccupied level (ev):     9.6651   12.0838

!    total energy              =    -612.42952822 Ry
     Harris-Foulkes estimate   =    -612.42952841 Ry
     estimated scf accuracy    <       0.00000063 Ry

     convergence has been achieved in  37 iterations

     Using ACE for calculation of exact exchange

     EXX grid:    29851 G-vectors     FFT dimensions: (  36,  36,  60)
