
     Program PWSCF v.6.4.1 starts on  3May2022 at 16:10: 6 

     This program is part of the open-source Quantum ESPRESSO suite
     for quantum simulation of materials; please cite
         "P. Giannozzi et al., J. Phys.:Condens. Matter 21 395502 (2009);
         "P. Giannozzi et al., J. Phys.:Condens. Matter 29 465901 (2017);
          URL http://www.quantum-espresso.org", 
     in publications or presentations arising from this work. More details at
     http://www.quantum-espresso.org/quote

     Parallel version (MPI), running on     1 processors

     MPI processes distributed on     1 nodes
     Waiting for input...
     Reading input from standard input

     Current dimensions of program PWSCF are:
     Max number of different atomic species (ntypx) = 10
     Max number of k-points (npk) =  40000
     Max angular momentum in pseudopotentials (lmaxx) =  3

     IMPORTANT: XC functional enforced from input :
     Exchange-correlation      = HSE ( 1  4 12  4 0 0)
     EXX-fraction              =        0.25
     Any further DFT definition will be discarded
     Please, verify this is what you really want

               file Ga.pbe-dn-kjpaw_psl.1.0.0.UPF: wavefunction(s)  4S renormalized
               file N.pbe-n-kjpaw_psl.1.0.0.UPF: wavefunction(s)  2S renormalized
     Message from routine setup :
     BEWARE: nonlinear core correction is not consistent with hybrid XC

     Subspace diagonalization in iterative solution of the eigenvalue problem:
     a serial algorithm will be used

     Message from routine setup:
     DEPRECATED: symmetry with ibrav=0, use correct ibrav instead
     EXX: setup a grid of 80 q-points centered on each k-point
     (k+q)-points:
   0.1082532   0.0625000   0.0384226         1    1
   0.1082532   0.0625000   0.1152679         2    1
   0.1082532   0.0625000   0.1921131         3    1
   0.1082532   0.0625000   0.2689584         4    1
   0.1804220   0.1875000   0.0384226         5    1
   0.1804220   0.1875000   0.1152679         6    1
   0.1804220   0.1875000   0.1921131         7    1
   0.1804220   0.1875000   0.2689584         8    1
   0.2525907   0.3125000   0.0384226         9    1
   0.2525907   0.3125000   0.1152679        10    1
   0.2525907   0.3125000   0.1921131        11    1
   0.2525907   0.3125000   0.2689584        12    1
   0.3247595   0.4375000   0.0384226        13    1
   0.3247595   0.4375000   0.1152679        14    1
   0.3247595   0.4375000   0.1921131        15    1
   0.3247595   0.4375000   0.2689584        16    1
  -0.1804220  -0.4375000   0.0384226        17    1
  -0.1804220  -0.4375000   0.1152679        18    1
  -0.1804220  -0.4375000   0.1921131        19    1
  -0.1804220  -0.4375000   0.2689584        20    1
  -0.1082532  -0.3125000   0.0384226        21    1
  -0.1082532  -0.3125000   0.1152679        22    1
  -0.1082532  -0.3125000   0.1921131        23    1
  -0.1082532  -0.3125000   0.2689584        24    1
  -0.0360844  -0.1875000   0.0384226        25    1
  -0.0360844  -0.1875000   0.1152679        26    1
  -0.0360844  -0.1875000   0.1921131        27    1
  -0.0360844  -0.1875000   0.2689584        28    1
   0.0360844  -0.0625000   0.0384226        29    1
   0.0360844  -0.0625000   0.1152679        30    1
   0.0360844  -0.0625000   0.1921131        31    1
   0.0360844  -0.0625000   0.2689584        32    1
   0.3247595   0.1875000   0.0384226        33    1
   0.3247595   0.1875000   0.1152679        34    1
   0.3247595   0.1875000   0.1921131        35    1
   0.3247595   0.1875000   0.2689584        36    1
   0.3969283   0.3125000   0.0384226        37    1
   0.3969283   0.3125000   0.1152679        38    1
   0.3969283   0.3125000   0.1921131        39    1
   0.3969283   0.3125000   0.2689584        40    1
   0.4690971   0.4375000   0.0384226        41    1
   0.4690971   0.4375000   0.1152679        42    1
   0.4690971   0.4375000   0.1921131        43    1
   0.4690971   0.4375000   0.2689584        44    1
  -0.0360844  -0.4375000   0.0384226        45    1
  -0.0360844  -0.4375000   0.1152679        46    1
  -0.0360844  -0.4375000   0.1921131        47    1
  -0.0360844  -0.4375000   0.2689584        48    1
   0.0360844  -0.3125000   0.0384226        49    1
   0.0360844  -0.3125000   0.1152679        50    1
   0.0360844  -0.3125000   0.1921131        51    1
   0.0360844  -0.3125000   0.2689584        52    1
   0.1082532  -0.1875000   0.0384226        53    1
   0.1082532  -0.1875000   0.1152679        54    1
   0.1082532  -0.1875000   0.1921131        55    1
   0.1082532  -0.1875000   0.2689584        56    1
   0.5412659   0.3125000   0.0384226        57    1
   0.5412659   0.3125000   0.1152679        58    1
   0.5412659   0.3125000   0.1921131        59    1
   0.5412659   0.3125000   0.2689584        60    1
   0.6134347   0.4375000   0.0384226        61    1
   0.6134347   0.4375000   0.1152679        62    1
   0.6134347   0.4375000   0.1921131        63    1
   0.6134347   0.4375000   0.2689584        64    1
   0.1082532  -0.4375000   0.0384226        65    1
   0.1082532  -0.4375000   0.1152679        66    1
   0.1082532  -0.4375000   0.1921131        67    1
   0.1082532  -0.4375000   0.2689584        68    1
   0.1804220  -0.3125000   0.0384226        69    1
   0.1804220  -0.3125000   0.1152679        70    1
   0.1804220  -0.3125000   0.1921131        71    1
   0.1804220  -0.3125000   0.2689584        72    1
   0.7577722   0.4375000   0.0384226        73    1
   0.7577722   0.4375000   0.1152679        74    1
   0.7577722   0.4375000   0.1921131        75    1
   0.7577722   0.4375000   0.2689584        76    1
   0.2525907  -0.4375000   0.0384226        77    1
   0.2525907  -0.4375000   0.1152679        78    1
   0.2525907  -0.4375000   0.1921131        79    1
   0.2525907  -0.4375000   0.2689584        80    1

     G-vector sticks info
     --------------------
     sticks:   dense  smooth     PW     G-vecs:    dense   smooth      PW
     Sum        2407     805    253               155203    29851    5119



     bravais-lattice index     =            0
     lattice parameter (alat)  =       6.0282  a.u.
     unit-cell volume          =     308.5974 (a.u.)^3
     number of atoms/cell      =            4
     number of atomic types    =            2
     number of electrons       =        36.00
     number of Kohn-Sham states=           20
     kinetic-energy cutoff     =      80.0000  Ry
     charge density cutoff     =     960.0000  Ry
     cutoff for Fock operator  =     320.0000  Ry
     convergence threshold     =      1.0E-06
     mixing beta               =       0.7000
     number of iterations used =            8  plain     mixing
     Exchange-correlation      = HSE ( 1  4 12  4 0 0)
     EXX-fraction              =        0.25

     celldm(1)=   6.028226  celldm(2)=   0.000000  celldm(3)=   0.000000
     celldm(4)=   0.000000  celldm(5)=   0.000000  celldm(6)=   0.000000

     crystal axes: (cart. coord. in units of alat)
               a(1) = (   0.866025  -0.500000   0.000000 )  
               a(2) = (   0.000000   1.000000   0.000000 )  
               a(3) = (   0.000000   0.000000   1.626646 )  

     reciprocal axes: (cart. coord. in units 2 pi/alat)
               b(1) = (  1.154701  0.000000  0.000000 )  
               b(2) = (  0.577350  1.000000 -0.000000 )  
               b(3) = ( -0.000000  0.000000  0.614762 )  


     PseudoPot. # 1 for Ga read from file:
     ./Ga.pbe-dn-kjpaw_psl.1.0.0.UPF
     MD5 check sum: 50ce49cbf7e0a40ad8623bf41840a268
     Pseudo is Projector augmented-wave + core cor, Zval = 13.0
     Generated using "atomic" code by A. Dal Corso v.6.3
     Shape of augmentation charge: PSQ
     Using radial grid of 1205 points,  6 beta functions with: 
                l(1) =   0
                l(2) =   0
                l(3) =   1
                l(4) =   1
                l(5) =   2
                l(6) =   2
     Q(r) pseudized with 0 coefficients 


     PseudoPot. # 2 for N  read from file:
     ./N.pbe-n-kjpaw_psl.1.0.0.UPF
     MD5 check sum: 14c48229446f9f2d411169a3abcbc3fa
     Pseudo is Projector augmented-wave + core cor, Zval =  5.0
     Generated using "atomic" code by A. Dal Corso v.6.3
     Shape of augmentation charge: PSQ
     Using radial grid of 1085 points,  4 beta functions with: 
                l(1) =   0
                l(2) =   0
                l(3) =   1
                l(4) =   1
     Q(r) pseudized with 0 coefficients 


     atomic species   valence    mass     pseudopotential
        Ga            13.00    69.72300     Ga( 1.00)
        N              5.00    14.00650     N ( 1.00)

     12 Sym. Ops. (no inversion) found ( 6 have fractional translation)



   Cartesian axes

     site n.     atom                  positions (alat units)
         1           Ga  tau(   1) = (   0.5773503  -0.0000000   0.0000000  )
         2           Ga  tau(   2) = (   0.2886751   0.5000000   0.8133229  )
         3           N   tau(   3) = (   0.5773503  -0.0000000   0.6099922  )
         4           N   tau(   4) = (   0.2886751   0.5000000   1.4233150  )

     number of k points=    80
                       cart. coord. in units 2pi/alat
        k(    1) = (   0.1082532   0.0625000   0.0384226), wk =   0.0156250
        k(    2) = (   0.1082532   0.0625000   0.1152679), wk =   0.0156250
        k(    3) = (   0.1082532   0.0625000   0.1921131), wk =   0.0156250
        k(    4) = (   0.1082532   0.0625000   0.2689584), wk =   0.0156250
        k(    5) = (   0.1804220   0.1875000   0.0384226), wk =   0.0312500
        k(    6) = (   0.1804220   0.1875000   0.1152679), wk =   0.0312500
        k(    7) = (   0.1804220   0.1875000   0.1921131), wk =   0.0312500
        k(    8) = (   0.1804220   0.1875000   0.2689584), wk =   0.0312500
        k(    9) = (   0.2525907   0.3125000   0.0384226), wk =   0.0312500
        k(   10) = (   0.2525907   0.3125000   0.1152679), wk =   0.0312500
        k(   11) = (   0.2525907   0.3125000   0.1921131), wk =   0.0312500
        k(   12) = (   0.2525907   0.3125000   0.2689584), wk =   0.0312500
        k(   13) = (   0.3247595   0.4375000   0.0384226), wk =   0.0312500
        k(   14) = (   0.3247595   0.4375000   0.1152679), wk =   0.0312500
        k(   15) = (   0.3247595   0.4375000   0.1921131), wk =   0.0312500
        k(   16) = (   0.3247595   0.4375000   0.2689584), wk =   0.0312500
        k(   17) = (  -0.1804220  -0.4375000   0.0384226), wk =   0.0312500
        k(   18) = (  -0.1804220  -0.4375000   0.1152679), wk =   0.0312500
        k(   19) = (  -0.1804220  -0.4375000   0.1921131), wk =   0.0312500
        k(   20) = (  -0.1804220  -0.4375000   0.2689584), wk =   0.0312500
        k(   21) = (  -0.1082532  -0.3125000   0.0384226), wk =   0.0312500
        k(   22) = (  -0.1082532  -0.3125000   0.1152679), wk =   0.0312500
        k(   23) = (  -0.1082532  -0.3125000   0.1921131), wk =   0.0312500
        k(   24) = (  -0.1082532  -0.3125000   0.2689584), wk =   0.0312500
        k(   25) = (  -0.0360844  -0.1875000   0.0384226), wk =   0.0312500
        k(   26) = (  -0.0360844  -0.1875000   0.1152679), wk =   0.0312500
        k(   27) = (  -0.0360844  -0.1875000   0.1921131), wk =   0.0312500
        k(   28) = (  -0.0360844  -0.1875000   0.2689584), wk =   0.0312500
        k(   29) = (   0.0360844  -0.0625000   0.0384226), wk =   0.0156250
        k(   30) = (   0.0360844  -0.0625000   0.1152679), wk =   0.0156250
        k(   31) = (   0.0360844  -0.0625000   0.1921131), wk =   0.0156250
        k(   32) = (   0.0360844  -0.0625000   0.2689584), wk =   0.0156250
        k(   33) = (   0.3247595   0.1875000   0.0384226), wk =   0.0156250
        k(   34) = (   0.3247595   0.1875000   0.1152679), wk =   0.0156250
        k(   35) = (   0.3247595   0.1875000   0.1921131), wk =   0.0156250
        k(   36) = (   0.3247595   0.1875000   0.2689584), wk =   0.0156250
        k(   37) = (   0.3969283   0.3125000   0.0384226), wk =   0.0312500
        k(   38) = (   0.3969283   0.3125000   0.1152679), wk =   0.0312500
        k(   39) = (   0.3969283   0.3125000   0.1921131), wk =   0.0312500
        k(   40) = (   0.3969283   0.3125000   0.2689584), wk =   0.0312500
        k(   41) = (   0.4690971   0.4375000   0.0384226), wk =   0.0312500
        k(   42) = (   0.4690971   0.4375000   0.1152679), wk =   0.0312500
        k(   43) = (   0.4690971   0.4375000   0.1921131), wk =   0.0312500
        k(   44) = (   0.4690971   0.4375000   0.2689584), wk =   0.0312500
        k(   45) = (  -0.0360844  -0.4375000   0.0384226), wk =   0.0312500
        k(   46) = (  -0.0360844  -0.4375000   0.1152679), wk =   0.0312500
        k(   47) = (  -0.0360844  -0.4375000   0.1921131), wk =   0.0312500
        k(   48) = (  -0.0360844  -0.4375000   0.2689584), wk =   0.0312500
        k(   49) = (   0.0360844  -0.3125000   0.0384226), wk =   0.0312500
        k(   50) = (   0.0360844  -0.3125000   0.1152679), wk =   0.0312500
        k(   51) = (   0.0360844  -0.3125000   0.1921131), wk =   0.0312500
        k(   52) = (   0.0360844  -0.3125000   0.2689584), wk =   0.0312500
        k(   53) = (   0.1082532  -0.1875000   0.0384226), wk =   0.0156250
        k(   54) = (   0.1082532  -0.1875000   0.1152679), wk =   0.0156250
        k(   55) = (   0.1082532  -0.1875000   0.1921131), wk =   0.0156250
        k(   56) = (   0.1082532  -0.1875000   0.2689584), wk =   0.0156250
        k(   57) = (   0.5412659   0.3125000   0.0384226), wk =   0.0156250
        k(   58) = (   0.5412659   0.3125000   0.1152679), wk =   0.0156250
        k(   59) = (   0.5412659   0.3125000   0.1921131), wk =   0.0156250
        k(   60) = (   0.5412659   0.3125000   0.2689584), wk =   0.0156250
        k(   61) = (   0.6134347   0.4375000   0.0384226), wk =   0.0312500
        k(   62) = (   0.6134347   0.4375000   0.1152679), wk =   0.0312500
        k(   63) = (   0.6134347   0.4375000   0.1921131), wk =   0.0312500
        k(   64) = (   0.6134347   0.4375000   0.2689584), wk =   0.0312500
        k(   65) = (   0.1082532  -0.4375000   0.0384226), wk =   0.0312500
        k(   66) = (   0.1082532  -0.4375000   0.1152679), wk =   0.0312500
        k(   67) = (   0.1082532  -0.4375000   0.1921131), wk =   0.0312500
        k(   68) = (   0.1082532  -0.4375000   0.2689584), wk =   0.0312500
        k(   69) = (   0.1804220  -0.3125000   0.0384226), wk =   0.0156250
        k(   70) = (   0.1804220  -0.3125000   0.1152679), wk =   0.0156250
        k(   71) = (   0.1804220  -0.3125000   0.1921131), wk =   0.0156250
        k(   72) = (   0.1804220  -0.3125000   0.2689584), wk =   0.0156250
        k(   73) = (   0.7577722   0.4375000   0.0384226), wk =   0.0156250
        k(   74) = (   0.7577722   0.4375000   0.1152679), wk =   0.0156250
        k(   75) = (   0.7577722   0.4375000   0.1921131), wk =   0.0156250
        k(   76) = (   0.7577722   0.4375000   0.2689584), wk =   0.0156250
        k(   77) = (   0.2525907  -0.4375000   0.0384226), wk =   0.0156250
        k(   78) = (   0.2525907  -0.4375000   0.1152679), wk =   0.0156250
        k(   79) = (   0.2525907  -0.4375000   0.1921131), wk =   0.0156250
        k(   80) = (   0.2525907  -0.4375000   0.2689584), wk =   0.0156250

     Dense  grid:   155203 G-vectors     FFT dimensions: (  60,  60, 100)

     Smooth grid:    29851 G-vectors     FFT dimensions: (  36,  36,  60)

     Estimated max dynamical RAM per process >       2.14 GB

     Initial potential from superposition of free atoms

     starting charge   35.99408, renormalised to   36.00000
     Starting wfcs are   26 randomized atomic wfcs

     total cpu time spent up to now is       15.4 secs

     Self-consistent Calculation

     iteration #  1     ecut=    80.00 Ry     beta= 0.70
     Davidson diagonalization with overlap
     ethr =  1.00E-02,  avg # of iterations =  2.6

     total cpu time spent up to now is       38.7 secs

     total energy              =    -611.65064197 Ry
     Harris-Foulkes estimate   =    -612.50087859 Ry
     estimated scf accuracy    <       1.13987981 Ry

     iteration #  2     ecut=    80.00 Ry     beta= 0.70
     Davidson diagonalization with overlap
     ethr =  3.17E-03,  avg # of iterations =  5.2

     total cpu time spent up to now is       74.8 secs

     total energy              =    -612.18620622 Ry
     Harris-Foulkes estimate   =    -612.80373883 Ry
     estimated scf accuracy    <       1.44398861 Ry

     iteration #  3     ecut=    80.00 Ry     beta= 0.70
     Davidson diagonalization with overlap
     ethr =  3.17E-03,  avg # of iterations =  2.0

     total cpu time spent up to now is      100.2 secs

     total energy              =    -612.41394092 Ry
     Harris-Foulkes estimate   =    -612.41414559 Ry
     estimated scf accuracy    <       0.05430188 Ry

     iteration #  4     ecut=    80.00 Ry     beta= 0.70
     Davidson diagonalization with overlap
     ethr =  1.51E-04,  avg # of iterations =  4.2

     total cpu time spent up to now is      131.6 secs

     total energy              =    -612.42889416 Ry
     Harris-Foulkes estimate   =    -612.42882371 Ry
     estimated scf accuracy    <       0.02362528 Ry

     iteration #  5     ecut=    80.00 Ry     beta= 0.70
     Davidson diagonalization with overlap
     ethr =  6.56E-05,  avg # of iterations =  1.9

     total cpu time spent up to now is      153.6 secs

     total energy              =    -612.42967242 Ry
     Harris-Foulkes estimate   =    -612.43073711 Ry
     estimated scf accuracy    <       0.00513025 Ry

     iteration #  6     ecut=    80.00 Ry     beta= 0.70
     Davidson diagonalization with overlap
     ethr =  1.43E-05,  avg # of iterations =  3.2

     total cpu time spent up to now is      177.4 secs

     total energy              =    -612.42990746 Ry
     Harris-Foulkes estimate   =    -612.43009131 Ry
     estimated scf accuracy    <       0.00399729 Ry

     iteration #  7     ecut=    80.00 Ry     beta= 0.70
     Davidson diagonalization with overlap
     ethr =  1.11E-05,  avg # of iterations =  1.1

     total cpu time spent up to now is      198.7 secs

     total energy              =    -612.43008099 Ry
     Harris-Foulkes estimate   =    -612.43002265 Ry
     estimated scf accuracy    <       0.00387204 Ry

     iteration #  8     ecut=    80.00 Ry     beta= 0.70
     Davidson diagonalization with overlap
     ethr =  1.08E-05,  avg # of iterations =  1.0

     total cpu time spent up to now is      220.8 secs

     total energy              =    -612.43010800 Ry
     Harris-Foulkes estimate   =    -612.43015617 Ry
     estimated scf accuracy    <       0.00406537 Ry

     iteration #  9     ecut=    80.00 Ry     beta= 0.70
     Davidson diagonalization with overlap
     ethr =  1.08E-05,  avg # of iterations =  1.0

     total cpu time spent up to now is      242.9 secs

     total energy              =    -612.42999324 Ry
     Harris-Foulkes estimate   =    -612.43015755 Ry
     estimated scf accuracy    <       0.00418600 Ry

     iteration # 10     ecut=    80.00 Ry     beta= 0.70
     Davidson diagonalization with overlap
     ethr =  1.08E-05,  avg # of iterations =  1.0

     total cpu time spent up to now is      264.8 secs

     total energy              =    -612.43011613 Ry
     Harris-Foulkes estimate   =    -612.43004516 Ry
     estimated scf accuracy    <       0.00396644 Ry

     iteration # 11     ecut=    80.00 Ry     beta= 0.70
     Davidson diagonalization with overlap
     ethr =  1.08E-05,  avg # of iterations =  1.0

     total cpu time spent up to now is      286.8 secs

     total energy              =    -612.43007294 Ry
     Harris-Foulkes estimate   =    -612.43014481 Ry
     estimated scf accuracy    <       0.00437570 Ry

     iteration # 12     ecut=    80.00 Ry     beta= 0.70
     Davidson diagonalization with overlap
     ethr =  1.08E-05,  avg # of iterations =  1.0

     total cpu time spent up to now is      308.7 secs

     total energy              =    -612.42908276 Ry
     Harris-Foulkes estimate   =    -612.43009723 Ry
     estimated scf accuracy    <       0.00386201 Ry

     iteration # 13     ecut=    80.00 Ry     beta= 0.70
     Davidson diagonalization with overlap
     ethr =  1.07E-05,  avg # of iterations =  2.5

     total cpu time spent up to now is      332.5 secs

     total energy              =    -612.42949169 Ry
     Harris-Foulkes estimate   =    -612.42952873 Ry
     estimated scf accuracy    <       0.00160499 Ry

     iteration # 14     ecut=    80.00 Ry     beta= 0.70
     Davidson diagonalization with overlap
     ethr =  4.46E-06,  avg # of iterations =  3.1

     total cpu time spent up to now is      362.0 secs

     total energy              =    -612.42996480 Ry
     Harris-Foulkes estimate   =    -612.42979599 Ry
     estimated scf accuracy    <       0.00110594 Ry

     iteration # 15     ecut=    80.00 Ry     beta= 0.70
     Davidson diagonalization with overlap
     ethr =  3.07E-06,  avg # of iterations =  2.0

     total cpu time spent up to now is      384.4 secs

     total energy              =    -612.42941427 Ry
     Harris-Foulkes estimate   =    -612.43000251 Ry
     estimated scf accuracy    <       0.00145615 Ry

     iteration # 16     ecut=    80.00 Ry     beta= 0.70
     Davidson diagonalization with overlap
     ethr =  3.07E-06,  avg # of iterations =  4.0

     total cpu time spent up to now is      415.6 secs

     total energy              =    -612.43089311 Ry
     Harris-Foulkes estimate   =    -612.42967593 Ry
     estimated scf accuracy    <       0.00218805 Ry

     iteration # 17     ecut=    80.00 Ry     beta= 0.70
     Davidson diagonalization with overlap
     ethr =  3.07E-06,  avg # of iterations =  4.0

     total cpu time spent up to now is      460.9 secs

     total energy              =    -612.43211573 Ry
     Harris-Foulkes estimate   =    -612.43244023 Ry
     estimated scf accuracy    <       0.01905141 Ry

     iteration # 18     ecut=    80.00 Ry     beta= 0.70
     Davidson diagonalization with overlap
     ethr =  3.07E-06,  avg # of iterations =  1.0

     total cpu time spent up to now is      482.7 secs

     total energy              =    -612.43191353 Ry
     Harris-Foulkes estimate   =    -612.43211768 Ry
     estimated scf accuracy    <       0.01756164 Ry

     iteration # 19     ecut=    80.00 Ry     beta= 0.70
     Davidson diagonalization with overlap
     ethr =  3.07E-06,  avg # of iterations =  1.0

     total cpu time spent up to now is      504.6 secs

     total energy              =    -612.43023607 Ry
     Harris-Foulkes estimate   =    -612.43192577 Ry
     estimated scf accuracy    <       0.01551057 Ry

     iteration # 20     ecut=    80.00 Ry     beta= 0.70
     Davidson diagonalization with overlap
     ethr =  3.07E-06,  avg # of iterations =  1.7

     total cpu time spent up to now is      526.8 secs

     total energy              =    -612.43002983 Ry
     Harris-Foulkes estimate   =    -612.43031614 Ry
     estimated scf accuracy    <       0.00862002 Ry

     iteration # 21     ecut=    80.00 Ry     beta= 0.70
     Davidson diagonalization with overlap
     ethr =  3.07E-06,  avg # of iterations =  3.0

     total cpu time spent up to now is      555.5 secs

     total energy              =    -612.43014194 Ry
     Harris-Foulkes estimate   =    -612.43022746 Ry
     estimated scf accuracy    <       0.00470234 Ry

     iteration # 22     ecut=    80.00 Ry     beta= 0.70
     Davidson diagonalization with overlap
     ethr =  3.07E-06,  avg # of iterations =  1.0

     total cpu time spent up to now is      577.4 secs

     total energy              =    -612.42953378 Ry
     Harris-Foulkes estimate   =    -612.43015326 Ry
     estimated scf accuracy    <       0.00435454 Ry

     iteration # 23     ecut=    80.00 Ry     beta= 0.70
     Davidson diagonalization with overlap
     ethr =  3.07E-06,  avg # of iterations =  3.0

     total cpu time spent up to now is      601.3 secs

     total energy              =    -612.42959401 Ry
     Harris-Foulkes estimate   =    -612.42962892 Ry
     estimated scf accuracy    <       0.00171590 Ry

     iteration # 24     ecut=    80.00 Ry     beta= 0.70
     Davidson diagonalization with overlap
     ethr =  3.07E-06,  avg # of iterations =  1.0

     total cpu time spent up to now is      623.2 secs

     total energy              =    -612.42954905 Ry
     Harris-Foulkes estimate   =    -612.42961548 Ry
     estimated scf accuracy    <       0.00152116 Ry

     iteration # 25     ecut=    80.00 Ry     beta= 0.70
     Davidson diagonalization with overlap
     ethr =  3.07E-06,  avg # of iterations =  1.0

     total cpu time spent up to now is      645.0 secs

     total energy              =    -612.42953022 Ry
     Harris-Foulkes estimate   =    -612.42956878 Ry
     estimated scf accuracy    <       0.00116416 Ry

     iteration # 26     ecut=    80.00 Ry     beta= 0.70
     Davidson diagonalization with overlap
     ethr =  3.07E-06,  avg # of iterations =  1.0

     total cpu time spent up to now is      666.8 secs

     total energy              =    -612.42952283 Ry
     Harris-Foulkes estimate   =    -612.42955244 Ry
     estimated scf accuracy    <       0.00085978 Ry

     iteration # 27     ecut=    80.00 Ry     beta= 0.70
     Davidson diagonalization with overlap
     ethr =  2.39E-06,  avg # of iterations =  1.0

     total cpu time spent up to now is      688.6 secs

     total energy              =    -612.42949727 Ry
     Harris-Foulkes estimate   =    -612.42953870 Ry
     estimated scf accuracy    <       0.00068606 Ry

     iteration # 28     ecut=    80.00 Ry     beta= 0.70
     Davidson diagonalization with overlap
     ethr =  1.91E-06,  avg # of iterations =  1.0

     total cpu time spent up to now is      710.3 secs

     total energy              =    -612.42947717 Ry
     Harris-Foulkes estimate   =    -612.42951526 Ry
     estimated scf accuracy    <       0.00039186 Ry

     iteration # 29     ecut=    80.00 Ry     beta= 0.70
     Davidson diagonalization with overlap
     ethr =  1.09E-06,  avg # of iterations =  1.6

     total cpu time spent up to now is      732.5 secs

     total energy              =    -612.42944441 Ry
     Harris-Foulkes estimate   =    -612.42949401 Ry
     estimated scf accuracy    <       0.00021630 Ry

     iteration # 30     ecut=    80.00 Ry     beta= 0.70
     Davidson diagonalization with overlap
     ethr =  6.01E-07,  avg # of iterations =  4.0

     total cpu time spent up to now is      762.8 secs

     total energy              =    -612.42954212 Ry
     Harris-Foulkes estimate   =    -612.42953335 Ry
     estimated scf accuracy    <       0.00003446 Ry

     iteration # 31     ecut=    80.00 Ry     beta= 0.70
     Davidson diagonalization with overlap
     ethr =  9.57E-08,  avg # of iterations =  3.9

     total cpu time spent up to now is      789.0 secs

     total energy              =    -612.42954199 Ry
     Harris-Foulkes estimate   =    -612.42955123 Ry
     estimated scf accuracy    <       0.00009588 Ry

     iteration # 32     ecut=    80.00 Ry     beta= 0.70
     Davidson diagonalization with overlap
     ethr =  9.57E-08,  avg # of iterations =  1.0

     total cpu time spent up to now is      810.8 secs

     total energy              =    -612.42953170 Ry
     Harris-Foulkes estimate   =    -612.42954226 Ry
     estimated scf accuracy    <       0.00006717 Ry

     iteration # 33     ecut=    80.00 Ry     beta= 0.70
     Davidson diagonalization with overlap
     ethr =  9.57E-08,  avg # of iterations =  1.0

     total cpu time spent up to now is      832.7 secs

     total energy              =    -612.42952975 Ry
     Harris-Foulkes estimate   =    -612.42953228 Ry
     estimated scf accuracy    <       0.00003450 Ry

     iteration # 34     ecut=    80.00 Ry     beta= 0.70
     Davidson diagonalization with overlap
     ethr =  9.57E-08,  avg # of iterations =  1.0

     total cpu time spent up to now is      854.6 secs

     total energy              =    -612.42953109 Ry
     Harris-Foulkes estimate   =    -612.42953048 Ry
     estimated scf accuracy    <       0.00001999 Ry

     iteration # 35     ecut=    80.00 Ry     beta= 0.70
     Davidson diagonalization with overlap
     ethr =  5.55E-08,  avg # of iterations =  1.0

     total cpu time spent up to now is      876.5 secs

     total energy              =    -612.42956790 Ry
     Harris-Foulkes estimate   =    -612.42953140 Ry
     estimated scf accuracy    <       0.00002217 Ry

     iteration # 36     ecut=    80.00 Ry     beta= 0.70
     Davidson diagonalization with overlap
     ethr =  5.55E-08,  avg # of iterations =  4.0

     total cpu time spent up to now is      917.4 secs

     total energy              =    -612.42949777 Ry
     Harris-Foulkes estimate   =    -612.42958058 Ry
     estimated scf accuracy    <       0.00031683 Ry

     iteration # 37     ecut=    80.00 Ry     beta= 0.70
     Davidson diagonalization with overlap
     ethr =  5.55E-08,  avg # of iterations =  4.0

     total cpu time spent up to now is      962.6 secs

     End of self-consistent calculation

          k = 0.1083 0.0625 0.0384 (  3752 PWs)   bands (ev):

    -6.1479  -5.3436  -3.7653  -3.7445  -3.7237  -3.6883  -3.6755  -3.5206
    -3.5136  -3.4345  -3.4130  -2.1221   2.8651   7.8942   8.3363   8.7805
     9.5070   9.5728  12.5544  14.6675

          k = 0.1083 0.0625 0.1153 (  3745 PWs)   bands (ev):

    -6.0634  -5.3729  -3.7564  -3.7420  -3.7082  -3.6955  -3.6809  -3.5052
    -3.5039  -3.4422  -3.4184  -2.4127   3.3888   7.9944   8.1310   8.5462
     9.3448   9.4781  13.0066  14.7144

          k = 0.1083 0.0625 0.1921 (  3733 PWs)   bands (ev):

    -5.9122  -5.4418  -3.7456  -3.7361  -3.7076  -3.6994  -3.6473  -3.4877
    -3.4728  -3.4583  -3.4287  -2.8169   4.2528   7.3351   8.1861   8.6474
     9.0876   9.3066  13.6469  14.7497

          k = 0.1083 0.0625 0.2690 (  3732 PWs)   bands (ev):

    -5.7301  -5.5624  -3.7346  -3.7263  -3.7213  -3.7128  -3.5551  -3.4920
    -3.4645  -3.4471  -3.3913  -3.1741   5.2779   6.3385   8.4497   8.7322
     8.8904   9.0908  14.2486  14.6363

          k = 0.1804 0.1875 0.0384 (  3743 PWs)   bands (ev):

    -5.8421  -5.2789  -3.7268  -3.7120  -3.6541  -3.6265  -3.5535  -3.5326
    -3.5039  -3.4586  -3.4017  -1.8792   3.3558   6.1946   7.0469   7.8645
     9.1065   9.2020  13.8338  15.7798

          k = 0.1804 0.1875 0.1153 (  3742 PWs)   bands (ev):

    -5.7753  -5.2953  -3.7258  -3.7056  -3.6640  -3.6327  -3.5621  -3.5140
    -3.4914  -3.4426  -3.3966  -2.1357   3.7472   6.3435   6.8292   7.9001
     8.9872   9.0947  13.9688  15.8295

          k = 0.1804 0.1875 0.1921 (  3737 PWs)   bands (ev):

    -5.6595  -5.3363  -3.7195  -3.6937  -3.6767  -3.6442  -3.5628  -3.5201
    -3.4761  -3.4332  -3.3211  -2.5118   4.3653   6.2123   6.8852   8.0405
     8.6539   8.8689  14.2994  15.7711

          k = 0.1804 0.1875 0.2690 (  3734 PWs)   bands (ev):

    -5.5271  -5.4130  -3.7067  -3.6916  -3.6771  -3.6598  -3.5538  -3.5369
    -3.4608  -3.4450  -3.1467  -2.8727   5.0380   5.6714   7.4182   8.0384
     8.3275   8.5854  14.8104  15.3780

          k = 0.2526 0.3125 0.0384 (  3722 PWs)   bands (ev):

    -5.5234  -5.2283  -3.7082  -3.6943  -3.6077  -3.5551  -3.5486  -3.5108
    -3.4625  -3.4041  -3.0048  -1.6107   3.7438   4.8716   5.6613   7.1334
     8.3567   8.7864  14.7401  15.6264

          k = 0.2526 0.3125 0.1153 (  3737 PWs)   bands (ev):

    -5.4825  -5.2328  -3.7112  -3.6845  -3.6263  -3.5595  -3.5521  -3.5019
    -3.4573  -3.4117  -2.9479  -1.7855   3.6900   5.0098   5.7621   7.2336
     8.4531   8.6558  14.4134  15.6207

          k = 0.2526 0.3125 0.1921 (  3731 PWs)   bands (ev):

    -5.4143  -5.2480  -3.7141  -3.6667  -3.6518  -3.5768  -3.5421  -3.5003
    -3.4504  -3.4222  -2.8267  -2.0675   3.7556   4.7053   6.4233   7.4436
     8.2789   8.5147  14.2466  15.4375

          k = 0.2526 0.3125 0.2690 (  3736 PWs)   bands (ev):

    -5.3410  -5.2828  -3.7073  -3.6877  -3.6312  -3.6018  -3.5265  -3.5103
    -3.4419  -3.4322  -2.6334  -2.3709   3.9716   4.3076   7.2187   7.7293
     7.9012   8.1795  14.4592  14.9547

          k = 0.3248 0.4375 0.0384 (  3710 PWs)   bands (ev):

    -5.3790  -5.2117  -3.7156  -3.6890  -3.5872  -3.5625  -3.5111  -3.4940
    -3.4299  -3.3955  -2.3117  -1.6918   3.3006   4.4506   5.5405   6.8173
     7.5642   8.5610  15.0085  15.1815

          k = 0.3248 0.4375 0.1153 (  3717 PWs)   bands (ev):

    -5.3525  -5.2107  -3.7181  -3.6789  -3.6108  -3.5659  -3.5217  -3.4696
    -3.4289  -3.4031  -2.2791  -1.7494   3.1389   4.1339   6.0133   6.9553
     7.8590   8.4032  14.4259  15.0986

          k = 0.3248 0.4375 0.1921 (  3731 PWs)   bands (ev):

    -5.3092  -5.2145  -3.7229  -3.6603  -3.6515  -3.5441  -3.5348  -3.4614
    -3.4271  -3.4126  -2.2121  -1.8546   3.0339   3.7075   6.6688   7.2482
     7.9853   8.2524  14.0332  14.9796

          k = 0.3248 0.4375 0.2690 (  3736 PWs)   bands (ev):

    -5.2642  -5.2310  -3.7187  -3.6978  -3.6155  -3.5769  -3.5011  -3.4738
    -3.4241  -3.4194  -2.1111  -1.9847   3.0956   3.3335   7.2270   7.6486
     7.7248   8.1395  14.1046  14.5522

          k =-0.1804-0.4375 0.0384 (  3709 PWs)   bands (ev):

    -5.4263  -5.2164  -3.7119  -3.6902  -3.5949  -3.5578  -3.5237  -3.5029
    -3.4419  -3.3988  -2.6415  -1.5926   3.4972   4.6944   5.3950   6.9132
     7.9089   8.6393  14.9126  15.3925

          k =-0.1804-0.4375 0.1153 (  3725 PWs)   bands (ev):

    -5.3949  -5.2174  -3.7146  -3.6805  -3.6155  -3.5623  -3.5336  -3.4826
    -3.4393  -3.4064  -2.5920  -1.7057   3.3508   4.4820   5.8372   7.0334
     8.1243   8.4898  14.4286  15.2994

          k =-0.1804-0.4375 0.1921 (  3733 PWs)   bands (ev):

    -5.3432  -5.2250  -3.7191  -3.6626  -3.6498  -3.5551  -3.5381  -3.4765
    -3.4356  -3.4163  -2.4891  -1.9001   3.2988   4.0851   6.5596   7.2803
     8.1023   8.3651  14.1122  15.1466

          k =-0.1804-0.4375 0.2690 (  3731 PWs)   bands (ev):

    -5.2889  -5.2475  -3.7142  -3.6937  -3.6200  -3.5846  -3.5110  -3.4877
    -3.4308  -3.4242  -2.3304  -2.1244   3.4198   3.6989   7.2492   7.6489
     7.7720   8.1471  14.2325  14.6969

          k =-0.1083-0.3125 0.0384 (  3732 PWs)   bands (ev):

    -5.6680  -5.2492  -3.7118  -3.7015  -3.6278  -3.5858  -3.5517  -3.5096
    -3.4850  -3.4128  -3.2930  -1.7278   3.6520   5.3602   6.3108   7.4601
     8.7727   8.9834  14.3750  15.8315

          k =-0.1083-0.3125 0.1153 (  3733 PWs)   bands (ev):

    -5.6143  -5.2590  -3.7140  -3.6922  -3.6432  -3.5936  -3.5427  -3.5178
    -3.4769  -3.4184  -3.2388  -1.9512   3.8588   5.5818   6.1494   7.5357
     8.7426   8.8747  14.2861  15.8961

          k =-0.1083-0.3125 0.1921 (  3734 PWs)   bands (ev):

    -5.5232  -5.2856  -3.7128  -3.6758  -3.6616  -3.6084  -3.5404  -3.5257
    -3.4660  -3.4280  -3.1197  -2.2930   4.1873   5.4426   6.4786   7.7141
     8.4797   8.6674  14.3540  15.7421

          k =-0.1083-0.3125 0.2690 (  3740 PWs)   bands (ev):

    -5.4224  -5.3389  -3.7027  -3.6847  -3.6512  -3.6284  -3.5394  -3.5337
    -3.4532  -3.4400  -2.9221  -2.6395   4.5803   5.0149   7.2126   7.8902
     8.0584   8.3295  14.7058  15.2466

          k =-0.0361-0.1875 0.0384 (  3750 PWs)   bands (ev):

    -6.0134  -5.3131  -3.7471  -3.7281  -3.6827  -3.6680  -3.6342  -3.5299
    -3.5125  -3.4527  -3.4096  -2.0188   3.0718   7.1058   7.7593   8.3117
     9.3496   9.4070  13.1954  15.2953

          k =-0.0361-0.1875 0.1153 (  3743 PWs)   bands (ev):

    -5.9359  -5.3364  -3.7424  -3.7242  -3.6840  -3.6701  -3.6306  -3.5072
    -3.5025  -3.4597  -3.4147  -2.2964   3.5517   7.2178   7.5250   8.2673
     9.1831   9.3002  13.5028  15.3358

          k =-0.0361-0.1875 0.1921 (  3739 PWs)   bands (ev):

    -5.7991  -5.3926  -3.7329  -3.7162  -3.6932  -3.6763  -3.6054  -3.4985
    -3.4764  -3.4460  -3.4150  -2.6906   4.3355   6.8955   7.5273   8.3662
     8.8422   9.1033  14.0263  15.3356

          k =-0.0361-0.1875 0.2690 (  3736 PWs)   bands (ev):

    -5.6378  -5.4935  -3.7206  -3.7079  -3.7027  -3.6893  -3.5601  -3.5197
    -3.4639  -3.4470  -3.2985  -3.0504   5.2386   6.1254   7.8918   8.3233
     8.6338   8.8600  14.6230  15.1161

          k = 0.0361-0.0625 0.0384 (  3743 PWs)   bands (ev):

    -6.2212  -5.3617  -3.7746  -3.7548  -3.7477  -3.6959  -3.6923  -3.5153
    -3.5128  -3.4224  -3.4147  -2.1768   2.7578   8.3761   8.5920   9.2127
     9.5929   9.6651  12.0838  14.2364

          k = 0.0361-0.0625 0.1153 (  3746 PWs)   bands (ev):

    -6.1332  -5.3945  -3.7615  -3.7528  -3.7330  -3.7030  -3.6997  -3.5036
    -3.5028  -3.4285  -3.4198  -2.4737   3.3004   8.4409   8.5380   8.6692
     9.4852   9.5787  12.6566  14.2902

          k = 0.0361-0.0625 0.1921 (  3749 PWs)   bands (ev):

    -5.9750  -5.4706  -3.7517  -3.7478  -3.7157  -3.7121  -3.6703  -3.4855
    -3.4818  -3.4414  -3.4303  -2.8837   4.1975   7.5178   8.6216   8.8136
     9.3025   9.4211  13.3645  14.3465

          k = 0.0361-0.0625 0.2690 (  3727 PWs)   bands (ev):

    -5.7822  -5.6021  -3.7420  -3.7388  -3.7295  -3.7262  -3.5466  -3.4664
    -3.4653  -3.4460  -3.4384  -3.2437   5.2722   6.4074   8.8339   9.0061
     9.0729   9.2194  13.9552  14.2825

          k = 0.3248 0.1875 0.0384 (  3730 PWs)   bands (ev):

    -5.5654  -5.2347  -3.7194  -3.6774  -3.6117  -3.5881  -3.5502  -3.5007
    -3.4700  -3.4299  -3.1092  -1.6247   3.8248   5.4813   5.5833   6.9201
     8.4194   8.5810  15.0620  16.4434

          k = 0.3248 0.1875 0.1153 (  3726 PWs)   bands (ev):

    -5.5203  -5.2405  -3.7068  -3.6843  -3.6198  -3.6050  -3.5283  -3.5208
    -3.4561  -3.4398  -3.0523  -1.8219   3.9101   5.4261   5.8969   6.8782
     8.2426   8.6761  14.9566  16.3199

          k = 0.3248 0.1875 0.1921 (  3737 PWs)   bands (ev):

    -5.4449  -5.2585  -3.6883  -3.6850  -3.6353  -3.6177  -3.5394  -3.5254
    -3.4453  -3.4445  -2.9302  -2.1322   4.0954   5.1127   6.5915   6.9688
     7.9437   8.5901  14.9477  16.0499

          k = 0.3248 0.1875 0.2690 (  3725 PWs)   bands (ev):

    -5.3634  -5.2981  -3.6812  -3.6689  -3.6461  -3.6309  -3.5474  -3.5399
    -3.4409  -3.4401  -2.7321  -2.4575   4.3777   4.7333   7.2049   7.3226
     7.6617   8.1611  15.1926  15.6262

          k = 0.3969 0.3125 0.0384 (  3724 PWs)   bands (ev):

    -5.3686  -5.2165  -3.7386  -3.6470  -3.5711  -3.5505  -3.5388  -3.5094
    -3.4512  -3.4227  -2.4464  -1.5180   3.7663   4.6295   5.5880   5.9866
     7.7324   7.8326  15.4599  16.1987

          k = 0.3969 0.3125 0.1153 (  3717 PWs)   bands (ev):

    -5.3426  -5.2141  -3.7217  -3.6599  -3.5976  -3.5542  -3.5328  -3.5002
    -3.4441  -3.4344  -2.3979  -1.6108   3.5966   4.4313   5.7686   6.3502
     7.5604   8.0704  15.2748  16.2582

          k = 0.3969 0.3125 0.1921 (  3727 PWs)   bands (ev):

    -5.3006  -5.2153  -3.6943  -3.6695  -3.6289  -3.5681  -3.5271  -3.4987
    -3.4473  -3.4333  -2.2994  -1.7738   3.4955   4.0969   5.9955   6.9968
     7.2440   8.3153  15.0800  16.0361

          k = 0.3969 0.3125 0.2690 (  3725 PWs)   bands (ev):

    -5.2581  -5.2283  -3.6807  -3.6680  -3.6322  -3.5960  -3.5215  -3.5114
    -3.4404  -3.4333  -2.1521  -1.9677   3.5561   3.7730   6.3310   6.7391
     7.7760   8.2399  15.1426  15.5371

          k = 0.4691 0.4375 0.0384 (  3709 PWs)   bands (ev):

    -5.3264  -5.2168  -3.7437  -3.6439  -3.5596  -3.5509  -3.5267  -3.5030
    -3.4531  -3.4205  -2.1377  -1.6091   3.6182   4.5117   5.4137   6.1629
     7.3853   7.6791  15.2402  16.4816

          k = 0.4691 0.4375 0.1153 (  3719 PWs)   bands (ev):

    -5.3050  -5.2123  -3.7260  -3.6566  -3.5952  -3.5404  -3.5340  -3.4817
    -3.4501  -3.4335  -2.1058  -1.6535   3.4513   4.2153   5.5302   6.6258
     7.3861   7.7994  15.1279  16.5552

          k = 0.4691 0.4375 0.1921 (  3710 PWs)   bands (ev):

    -5.2708  -5.2091  -3.6977  -3.6640  -3.6346  -3.5560  -3.5199  -3.4786
    -3.4490  -3.4407  -2.0424  -1.7363   3.3139   3.8276   5.7786   7.0065
     7.3034   8.1548  14.9822  16.1871

          k = 0.4691 0.4375 0.2690 (  3729 PWs)   bands (ev):

    -5.2373  -5.2157  -3.6830  -3.6669  -3.6346  -3.5911  -3.5048  -3.4912
    -3.4449  -3.4406  -1.9510  -1.8426   3.3239   3.5048   6.1378   6.5678
     7.9095   8.2360  15.0673  15.5288

          k =-0.0361-0.4375 0.0384 (  3727 PWs)   bands (ev):

    -5.4495  -5.2216  -3.7296  -3.6569  -3.5894  -3.5675  -3.5464  -3.5079
    -3.4568  -3.4259  -2.8016  -1.5275   3.8973   4.9727   5.4739   6.3513
     8.0524   8.2023  15.6283  15.9696

          k =-0.0361-0.4375 0.1153 (  3727 PWs)   bands (ev):

    -5.4153  -5.2228  -3.7144  -3.6682  -3.6054  -3.5792  -3.5294  -3.5153
    -3.4460  -3.4372  -2.7446  -1.6765   3.7962   4.8503   5.9429   6.3523
     7.8512   8.3963  15.3392  16.0568

          k =-0.0361-0.4375 0.1921 (  3730 PWs)   bands (ev):

    -5.3590  -5.2312  -3.6891  -3.6770  -3.6268  -3.5916  -3.5371  -3.5141
    -3.4462  -3.4345  -2.6258  -1.9232   3.7949   4.5541   6.4003   6.7730
     7.5217   8.4777  15.1367  15.9251

          k =-0.0361-0.4375 0.2690 (  3730 PWs)   bands (ev):

    -5.3001  -5.2555  -3.6784  -3.6684  -3.6342  -3.6100  -3.5396  -3.5300
    -3.4385  -3.4327  -2.4410  -2.1969   3.9440   4.2170   6.7029   7.0590
     7.6115   8.2089  15.2234  15.5693

          k = 0.0361-0.3125 0.0384 (  3729 PWs)   bands (ev):

    -5.7040  -5.2551  -3.7121  -3.7037  -3.6325  -3.6101  -3.5486  -3.4999
    -3.4826  -3.4405  -3.3265  -1.7560   3.5986   5.7666   6.3050   7.4652
     8.8288   8.8893  14.4164  16.3452

          k = 0.0361-0.3125 0.1153 (  3739 PWs)   bands (ev):

    -5.6473  -5.2661  -3.7065  -3.7022  -3.6424  -3.6205  -3.5385  -3.5155
    -3.4719  -3.4400  -3.2792  -1.9886   3.8727   5.9465   6.2106   7.4438
     8.6744   8.8884  14.4364  16.3574

          k = 0.0361-0.3125 0.1921 (  3735 PWs)   bands (ev):

    -5.5507  -5.2955  -3.7040  -3.6859  -3.6565  -3.6323  -3.5406  -3.5323
    -3.4611  -3.4402  -3.1672  -2.3405   4.2955   5.6893   6.6319   7.5449
     8.4069   8.6662  14.6159  16.1101

          k = 0.0361-0.3125 0.2690 (  3742 PWs)   bands (ev):

    -5.4432  -5.3534  -3.6926  -3.6765  -3.6629  -3.6462  -3.5472  -3.5447
    -3.4514  -3.4440  -2.9742  -2.6922   4.7638   5.2397   7.3171   7.7383
     8.0720   8.2035  15.0261  15.5813

          k = 0.1083-0.1875 0.0384 (  3748 PWs)   bands (ev):

    -5.9525  -5.3003  -3.7412  -3.7199  -3.6733  -3.6379  -3.6201  -3.5357
    -3.5090  -3.4559  -3.4092  -1.9707   3.1701   6.6818   7.6540   8.0635
     9.2634   9.4005  13.4095  15.4256

          k = 0.1083-0.1875 0.1153 (  3732 PWs)   bands (ev):

    -5.8786  -5.3212  -3.7379  -3.7154  -3.6797  -3.6457  -3.6106  -3.5123
    -3.5002  -3.4535  -3.4156  -2.2415   3.6234   6.7986   7.3446   8.1557
     9.1008   9.2871  13.6490  15.4731

          k = 0.1083-0.1875 0.1921 (  3741 PWs)   bands (ev):

    -5.7489  -5.3718  -3.7293  -3.7062  -3.6898  -3.6595  -3.5896  -3.5051
    -3.4844  -3.4280  -3.3994  -2.6303   4.3567   6.6375   7.2438   8.3295
     8.7208   9.0836  14.0991  15.4632

          k = 0.1083-0.1875 0.2690 (  3737 PWs)   bands (ev):

    -5.5976  -5.4640  -3.7165  -3.7025  -3.6927  -3.6763  -3.5584  -3.5268
    -3.4649  -3.4451  -3.2510  -2.9916   5.1843   5.9754   7.6509   8.1892
     8.5640   8.8284  14.6657  15.1905

          k = 0.5413 0.3125 0.0384 (  3722 PWs)   bands (ev):

    -5.2683  -5.2358  -3.7618  -3.5811  -3.5589  -3.5430  -3.5267  -3.5171
    -3.4773  -3.4363  -1.8651  -1.6438   4.2034   4.2932   4.6862   6.5229
     7.0168   7.0367  14.9365  17.2694

          k = 0.5413 0.3125 0.1153 (  3711 PWs)   bands (ev):

    -5.2536  -5.2261  -3.7417  -3.6084  -3.5908  -3.5461  -3.5041  -3.4999
    -3.4742  -3.4553  -1.8477  -1.6579   3.9391   4.1116   4.7271   6.7655
     7.0074   7.4292  15.3084  16.9249

          k = 0.5413 0.3125 0.1921 (  3718 PWs)   bands (ev):

    -5.2314  -5.2132  -3.7041  -3.6337  -3.6216  -3.5615  -3.4954  -3.4899
    -3.4742  -3.4664  -1.8149  -1.6861   3.6722   3.8121   4.9791   6.3379
     7.6212   7.9285  15.8817  16.4071

          k = 0.5413 0.3125 0.2690 (  3710 PWs)   bands (ev):

    -5.2129  -5.2065  -3.6560  -3.6470  -3.6402  -3.6006  -3.4968  -3.4964
    -3.4664  -3.4623  -1.7718  -1.7261   3.5448   3.5967   5.3693   5.8426
     8.0967   8.2125  16.0658  16.0935

          k = 0.6134 0.4375 0.0384 (  3713 PWs)   bands (ev):

    -5.3101  -5.2214  -3.7536  -3.6112  -3.5593  -3.5472  -3.5340  -3.5130
    -3.4616  -3.4314  -2.1345  -1.5429   3.9320   4.4065   5.2054   6.1131
     7.3052   7.4212  15.1452  16.8054

          k = 0.6134 0.4375 0.1153 (  3716 PWs)   bands (ev):

    -5.2903  -5.2154  -3.7345  -3.6316  -3.5887  -3.5510  -3.5201  -3.5011
    -3.4542  -3.4473  -2.0981  -1.5930   3.7272   4.2188   5.2064   6.6176
     7.0779   7.7645  15.3809  16.5153

          k = 0.6134 0.4375 0.1921 (  3721 PWs)   bands (ev):

    -5.2592  -5.2095  -3.6996  -3.6509  -3.6210  -3.5645  -3.5136  -3.4975
    -3.4605  -3.4457  -2.0263  -1.6856   3.5451   3.9163   5.3931   6.6425
     7.3423   8.1445  15.5682  16.1860

          k = 0.6134 0.4375 0.2690 (  3717 PWs)   bands (ev):

    -5.2297  -5.2123  -3.6646  -3.6567  -3.6360  -3.5979  -3.5118  -3.5072
    -3.4521  -3.4450  -1.9239  -1.8035   3.5124   3.6486   5.7404   6.1808
     7.9487   8.2514  15.6068  15.8534

          k = 0.1083-0.4375 0.0384 (  3725 PWs)   bands (ev):

    -5.4416  -5.2196  -3.7201  -3.6781  -3.5884  -3.5543  -3.5422  -3.5083
    -3.4521  -3.4127  -2.7493  -1.5498   3.7251   4.8224   5.4755   6.5775
     8.0839   8.3384  15.2910  15.9810

          k = 0.1083-0.4375 0.1153 (  3724 PWs)   bands (ev):

    -5.4084  -5.2208  -3.7083  -3.6835  -3.6116  -3.5561  -3.5434  -3.4999
    -3.4454  -3.4219  -2.6946  -1.6861   3.5961   4.7119   5.8404   6.6860
     8.0980   8.3427  14.8480  15.9927

          k = 0.1083-0.4375 0.1921 (  3730 PWs)   bands (ev):

    -5.3537  -5.2290  -3.7020  -3.6726  -3.6406  -3.5713  -3.5360  -3.4982
    -3.4414  -3.4281  -2.5807  -1.9148   3.5723   4.3650   6.4524   7.0091
     7.7922   8.4339  14.5998  15.7293

          k = 0.1083-0.4375 0.2690 (  3726 PWs)   bands (ev):

    -5.2964  -5.2528  -3.6968  -3.6798  -3.6297  -3.5969  -3.5249  -3.5102
    -3.4362  -3.4304  -2.4040  -2.1722   3.7135   3.9963   6.9471   7.3422
     7.6615   8.1954  14.7342  15.2004

          k = 0.1804-0.3125 0.0384 (  3728 PWs)   bands (ev):

    -5.6035  -5.2393  -3.7135  -3.6926  -3.6217  -3.5623  -3.5532  -3.5145
    -3.4757  -3.4012  -3.1898  -1.6760   3.7219   5.0183   6.0178   7.4320
     8.5852   9.0149  14.4296  15.5203

          k = 0.1804-0.3125 0.1153 (  3734 PWs)   bands (ev):

    -5.5553  -5.2468  -3.7172  -3.6823  -3.6378  -3.5712  -3.5513  -3.5092
    -3.4714  -3.4084  -3.1325  -1.8802   3.7997   5.2759   5.9019   7.5380
     8.6321   8.8754  14.2141  15.5658

          k = 0.1804-0.3125 0.1921 (  3733 PWs)   bands (ev):

    -5.4743  -5.2684  -3.7180  -3.6633  -3.6630  -3.5885  -3.5434  -3.5097
    -3.4627  -3.4209  -3.0095  -2.1997   3.9870   5.0832   6.3861   7.7387
     8.4716   8.6282  14.1574  15.4245

          k = 0.1804-0.3125 0.2690 (  3734 PWs)   bands (ev):

    -5.3857  -5.3135  -3.7092  -3.6893  -3.6386  -3.6122  -3.5311  -3.5183
    -3.4504  -3.4358  -2.8099  -2.5317   4.2851   4.6695   7.1932   7.9586
     8.0116   8.3230  14.4421  14.9588

          k = 0.7578 0.4375 0.0384 (  3705 PWs)   bands (ev):

    -5.3515  -5.2128  -3.7279  -3.6740  -3.5700  -3.5607  -3.5157  -3.4958
    -3.4390  -3.4062  -2.1830  -1.6826   3.3956   4.4555   5.5954   6.4164
     7.4468   8.1463  15.2919  15.7396

          k = 0.7578 0.4375 0.1153 (  3712 PWs)   bands (ev):

    -5.3277  -5.2101  -3.7160  -3.6784  -3.6038  -3.5529  -3.5265  -3.4716
    -3.4381  -3.4161  -2.1546  -1.7257   3.2329   4.1344   5.9187   6.6939
     7.7146   8.0140  14.7656  15.7419

          k = 0.7578 0.4375 0.1921 (  3722 PWs)   bands (ev):

    -5.2891  -5.2106  -3.7090  -3.6625  -3.6496  -3.5480  -3.5272  -3.4650
    -3.4361  -3.4260  -2.0972  -1.8064   3.1122   3.7161   6.3075   7.2359
     7.5329   8.1890  14.4403  15.5325

          k = 0.7578 0.4375 0.2690 (  3729 PWs)   bands (ev):

    -5.2499  -5.2223  -3.7041  -3.6850  -3.6246  -3.5827  -3.5005  -3.4781
    -3.4331  -3.4298  -2.0124  -1.9093   3.1488   3.3612   6.7072   7.1288
     7.8304   8.2038  14.5159  14.9900

          k = 0.2526-0.4375 0.0384 (  3720 PWs)   bands (ev):

    -5.4049  -5.2133  -3.7141  -3.6884  -3.5976  -3.5613  -3.5135  -3.4966
    -3.4317  -3.3925  -2.4851  -1.6477   3.3378   4.5484   5.4296   7.0360
     7.7200   8.7481  14.7403  15.1083

          k = 0.2526-0.4375 0.1153 (  3718 PWs)   bands (ev):

    -5.3758  -5.2136  -3.7211  -3.6742  -3.6155  -3.5701  -3.5239  -3.4725
    -3.4308  -3.3992  -2.4436  -1.7319   3.1814   4.2607   5.9243   7.1493
     7.9872   8.5947  14.2693  14.9361

          k = 0.2526-0.4375 0.1921 (  3724 PWs)   bands (ev):

    -5.3280  -5.2198  -3.7270  -3.6626  -3.6479  -3.5457  -3.5395  -3.4641
    -3.4284  -3.4090  -2.3578  -1.8810   3.1005   3.8398   6.6745   7.3641
     8.1847   8.3244  13.8952  14.8263

          k = 0.2526-0.4375 0.2690 (  3732 PWs)   bands (ev):

    -5.2779  -5.2399  -3.7223  -3.7008  -3.6136  -3.5773  -3.5042  -3.4761
    -3.4243  -3.4178  -2.2266  -2.0590   3.1923   3.4541   7.4407   7.6572
     7.9931   8.0086  13.9854  14.4286

     highest occupied, lowest unoccupied level (ev):     9.6651   12.0838

!    total energy              =    -612.42952822 Ry
     Harris-Foulkes estimate   =    -612.42952841 Ry
     estimated scf accuracy    <       0.00000063 Ry

     convergence has been achieved in  37 iterations

     Using ACE for calculation of exact exchange

     EXX grid:    29851 G-vectors     FFT dimensions: (  36,  36,  60)

     EXX: now go back to refine exchange calculation

     total cpu time spent up to now is     4581.6 secs

     Self-consistent Calculation

     iteration #  1     ecut=    80.00 Ry     beta= 0.70
     Davidson diagonalization with overlap
     ethr =  5.55E-08,  avg # of iterations =  7.3

     total cpu time spent up to now is     4653.6 secs

     total energy              =    -556.58647363 Ry
     Harris-Foulkes estimate   =    -556.62171795 Ry
     estimated scf accuracy    <       0.17313158 Ry

     iteration #  2     ecut=    80.00 Ry     beta= 0.70
     Davidson diagonalization with overlap
     ethr =  4.81E-04,  avg # of iterations =  5.0

     total cpu time spent up to now is     4700.5 secs

     total energy              =    -543.04640325 Ry
     Harris-Foulkes estimate   =    -543.08255880 Ry
     estimated scf accuracy    <       0.07080244 Ry

     iteration #  3     ecut=    80.00 Ry     beta= 0.70
     Davidson diagonalization with overlap
     ethr =  1.97E-04,  avg # of iterations =  2.0

     total cpu time spent up to now is     4728.6 secs

     total energy              =    -543.06057236 Ry
     Harris-Foulkes estimate   =    -543.06201995 Ry
     estimated scf accuracy    <       0.00567364 Ry

     iteration #  4     ecut=    80.00 Ry     beta= 0.70
     Davidson diagonalization with overlap
     ethr =  1.58E-05,  avg # of iterations =  4.1

     total cpu time spent up to now is     4766.8 secs

     total energy              =    -543.06340350 Ry
     Harris-Foulkes estimate   =    -543.06398774 Ry
     estimated scf accuracy    <       0.00533594 Ry

     iteration #  5     ecut=    80.00 Ry     beta= 0.70
     Davidson diagonalization with overlap
     ethr =  1.48E-05,  avg # of iterations =  1.6

     total cpu time spent up to now is     4791.5 secs

     total energy              =    -543.06351950 Ry
     Harris-Foulkes estimate   =    -543.06368141 Ry
     estimated scf accuracy    <       0.00133052 Ry

     iteration #  6     ecut=    80.00 Ry     beta= 0.70
     Davidson diagonalization with overlap
     ethr =  3.70E-06,  avg # of iterations =  3.0

     total cpu time spent up to now is     4823.9 secs

     total energy              =    -543.06351592 Ry
     Harris-Foulkes estimate   =    -543.06382267 Ry
     estimated scf accuracy    <       0.00048732 Ry

     iteration #  7     ecut=    80.00 Ry     beta= 0.70
     Davidson diagonalization with overlap
     ethr =  1.35E-06,  avg # of iterations =  3.7

     total cpu time spent up to now is     4857.3 secs

     total energy              =    -543.06362717 Ry
     Harris-Foulkes estimate   =    -543.06363144 Ry
     estimated scf accuracy    <       0.00000885 Ry

     iteration #  8     ecut=    80.00 Ry     beta= 0.70
     Davidson diagonalization with overlap
     ethr =  2.46E-08,  avg # of iterations =  4.1

     total cpu time spent up to now is     4901.9 secs

     total energy              =    -543.06364285 Ry
     Harris-Foulkes estimate   =    -543.06364350 Ry
     estimated scf accuracy    <       0.00000291 Ry

     iteration #  9     ecut=    80.00 Ry     beta= 0.70
     Davidson diagonalization with overlap
     ethr =  8.08E-09,  avg # of iterations =  1.4

     total cpu time spent up to now is     4926.3 secs

     total energy              =    -543.06364273 Ry
     Harris-Foulkes estimate   =    -543.06364296 Ry
     estimated scf accuracy    <       0.00000101 Ry

     iteration # 10     ecut=    80.00 Ry     beta= 0.70
     Davidson diagonalization with overlap
     ethr =  2.82E-09,  avg # of iterations =  3.0

     total cpu time spent up to now is     4958.8 secs

     End of self-consistent calculation

          k = 0.1083 0.0625 0.0384 (  3752 PWs)   bands (ev):

    -8.1275  -6.9856  -4.6606  -4.6278  -4.5975  -4.5508  -4.5254  -4.2838
    -4.2813  -4.1881  -4.1664  -3.1178   1.8795   6.7337   6.9322   7.6246
     8.2016   8.7722  13.6572  16.0972

          k = 0.1083 0.0625 0.1153 (  3745 PWs)   bands (ev):

    -8.0302  -7.0510  -4.6555  -4.6288  -4.5797  -4.5551  -4.5420  -4.2737
    -4.2713  -4.2005  -4.1763  -3.4274   2.5426   6.7965   6.9800   7.3257
     8.1011   8.4513  14.1234  16.0779

          k = 0.1083 0.0625 0.1921 (  3733 PWs)   bands (ev):

    -7.8484  -7.1841  -4.6442  -4.6198  -4.5855  -4.5626  -4.5193  -4.2604
    -4.2466  -4.2275  -4.1929  -3.8082   3.5113   6.5507   6.9793   7.2447
     7.9215   8.0308  14.7838  16.0468

          k = 0.1083 0.0625 0.2690 (  3732 PWs)   bands (ev):

    -7.6164  -7.3805  -4.6270  -4.6060  -4.6036  -4.5838  -4.4237  -4.2984
    -4.2355  -4.2174  -4.2000  -4.0905   4.5833   5.6377   7.2666   7.4472
     7.6305   7.6932  15.4193  15.8654

          k = 0.1804 0.1875 0.0384 (  3743 PWs)   bands (ev):

    -7.7595  -6.8836  -4.6182  -4.5738  -4.5032  -4.4676  -4.4020  -4.3105
    -4.2859  -4.2351  -4.1657  -2.8727   2.3641   5.1719   6.0025   6.5714
     7.9300   8.3651  15.0399  17.2282

          k = 0.1804 0.1875 0.1153 (  3742 PWs)   bands (ev):

    -7.6749  -6.9247  -4.6084  -4.5749  -4.5070  -4.4777  -4.4025  -4.2992
    -4.2779  -4.2278  -4.1722  -3.1443   2.7850   5.3413   5.8657   6.5774
     7.8004   8.2462  15.1280  17.2157

          k = 0.1804 0.1875 0.1921 (  3737 PWs)   bands (ev):

    -7.5208  -7.0123  -4.5905  -4.5664  -4.5151  -4.4946  -4.3961  -4.3100
    -4.2587  -4.2130  -4.1553  -3.5171   3.4347   5.2564   5.9814   6.7296
     7.5669   7.9001  15.4007  16.9945

          k = 0.1804 0.1875 0.2690 (  3734 PWs)   bands (ev):

    -7.3315  -7.1511  -4.5679  -4.5532  -4.5252  -4.5127  -4.3746  -4.3403
    -4.2419  -4.2244  -4.0476  -3.8376   4.1185   4.7437   6.5793   6.9853
     7.2379   7.3544  15.8782  16.4666

          k = 0.2526 0.3125 0.0384 (  3722 PWs)   bands (ev):

    -7.3148  -6.7818  -4.5938  -4.5172  -4.4368  -4.3849  -4.3336  -4.3056
    -4.2574  -4.1825  -3.9190  -2.6293   2.7715   3.9243   4.7820   5.8198
     7.5724   7.6171  15.9337  16.9089

          k = 0.2526 0.3125 0.1153 (  3737 PWs)   bands (ev):

    -7.2575  -6.8028  -4.5792  -4.5284  -4.4452  -4.3961  -4.3474  -4.2886
    -4.2516  -4.1925  -3.8738  -2.8033   2.6470   4.0958   4.9147   5.9388
     7.4308   7.7065  15.5047  16.7812

          k = 0.2526 0.3125 0.1921 (  3731 PWs)   bands (ev):

    -7.1552  -6.8492  -4.5601  -4.5306  -4.4693  -4.4177  -4.3412  -4.2852
    -4.2436  -4.2056  -3.7768  -3.0878   2.6892   3.7760   5.6126   6.1933
     7.1474   7.6626  15.2597  16.4887

          k = 0.2526 0.3125 0.2690 (  3736 PWs)   bands (ev):

    -7.0338  -6.9260  -4.5446  -4.5243  -4.4800  -4.4496  -4.3218  -4.2993
    -4.2321  -4.2185  -3.6174  -3.3832   2.9441   3.3365   6.3296   6.6338
     6.7980   7.2846  15.4362  15.9418

          k = 0.3248 0.4375 0.0384 (  3710 PWs)   bands (ev):

    -7.0524  -6.7447  -4.5927  -4.5048  -4.3936  -4.3573  -4.3328  -4.2885
    -4.2269  -4.1801  -3.3066  -2.7595   2.3562   3.6045   4.6785   5.5147
     6.7704   7.4100  16.1280  16.2902

          k = 0.3248 0.4375 0.1153 (  3717 PWs)   bands (ev):

    -7.0164  -6.7540  -4.5770  -4.5110  -4.4157  -4.3699  -4.3449  -4.2555
    -4.2252  -4.1919  -3.2821  -2.8047   2.1391   3.2657   5.1389   5.7030
     7.0420   7.2644  15.4277  16.2350

          k = 0.3248 0.4375 0.1921 (  3731 PWs)   bands (ev):

    -6.9547  -6.7783  -4.5612  -4.5029  -4.4722  -4.3713  -4.3349  -4.2428
    -4.2222  -4.2041  -3.2292  -2.8977   1.9860   2.7969   5.6751   6.1566
     6.9010   7.3524  15.0000  16.0591

          k = 0.3248 0.4375 0.2690 (  3736 PWs)   bands (ev):

    -6.8836  -6.8217  -4.5505  -4.5218  -4.4620  -4.4131  -4.2931  -4.2582
    -4.2175  -4.2107  -3.1429  -3.0239   2.0624   2.3625   6.1048   6.5172
     6.7918   7.2595  15.0715  15.5589

          k =-0.1804-0.4375 0.0384 (  3709 PWs)   bands (ev):

    -7.1464  -6.7545  -4.5921  -4.5068  -4.4123  -4.3567  -4.3399  -4.2966
    -4.2390  -4.1800  -3.6090  -2.6360   2.5383   3.8098   4.5310   5.6045
     7.1261   7.4775  16.0560  16.5766

          k =-0.1804-0.4375 0.1153 (  3725 PWs)   bands (ev):

    -7.1023  -6.7683  -4.5767  -4.5159  -4.4265  -4.3697  -4.3552  -4.2681
    -4.2356  -4.1913  -3.5686  -2.7409   2.3288   3.5977   4.9862   5.7548
     7.2594   7.3939  15.4672  16.4299

          k =-0.1804-0.4375 0.1921 (  3733 PWs)   bands (ev):

    -7.0251  -6.8008  -4.5598  -4.5139  -4.4683  -4.3873  -4.3386  -4.2582
    -4.2311  -4.2038  -3.4829  -2.9310   2.2380   3.1684   5.6729   6.0965
     6.9911   7.4918  15.0958  16.2109

          k =-0.1804-0.4375 0.2690 (  3731 PWs)   bands (ev):

    -6.9349  -6.8561  -4.5478  -4.5215  -4.4682  -4.4253  -4.3042  -4.2731
    -4.2237  -4.2132  -3.3454  -3.1534   2.3864   2.7278   6.1913   6.5946
     6.7307   7.2762  15.2007  15.6926

          k =-0.1083-0.3125 0.0384 (  3732 PWs)   bands (ev):

    -7.5303  -6.8271  -4.6018  -4.5418  -4.4641  -4.4256  -4.3349  -4.3096
    -4.2747  -4.2025  -4.1294  -2.7291   2.6718   4.3693   5.3716   6.1461
     7.7586   8.0203  15.5963  17.1937

          k =-0.1083-0.3125 0.1153 (  3733 PWs)   bands (ev):

    -7.4584  -6.8573  -4.5892  -4.5496  -4.4704  -4.4366  -4.3373  -4.3119
    -4.2677  -4.1997  -4.0993  -2.9606   2.8405   4.6328   5.2560   6.2260
     7.6112   8.0124  15.4255  17.1721

          k =-0.1083-0.3125 0.1921 (  3734 PWs)   bands (ev):

    -7.3283  -6.9223  -4.5683  -4.5497  -4.4824  -4.4574  -4.3407  -4.3197
    -4.2545  -4.2082  -4.0167  -3.3057   3.1580   4.4964   5.6625   6.4319
     7.3488   7.8013  15.4087  16.8278

          k =-0.1083-0.3125 0.2690 (  3740 PWs)   bands (ev):

    -7.1716  -7.0281  -4.5463  -4.5367  -4.4956  -4.4831  -4.3399  -4.3316
    -4.2392  -4.2232  -3.8669  -3.6299   3.5807   4.0503   6.4295   6.7451
     7.0088   7.2930  15.7117  16.2518

          k =-0.0361-0.1875 0.0384 (  3750 PWs)   bands (ev):

    -7.9681  -6.9407  -4.6401  -4.6033  -4.5536  -4.5095  -4.4840  -4.2971
    -4.2869  -4.2154  -4.1679  -3.0116   2.0764   6.0372   6.5415   7.0851
     8.0838   8.6157  14.3564  16.7540

          k =-0.0361-0.1875 0.1153 (  3743 PWs)   bands (ev):

    -7.8750  -6.9939  -4.6331  -4.6000  -4.5504  -4.5155  -4.4903  -4.2824
    -4.2779  -4.2252  -4.1776  -3.3080   2.6452   6.1449   6.4794   6.9515
     7.9712   8.3963  14.6488  16.7273

          k =-0.0361-0.1875 0.1921 (  3739 PWs)   bands (ev):

    -7.7036  -7.1054  -4.6192  -4.5873  -4.5565  -4.5272  -4.4727  -4.2817
    -4.2535  -4.2302  -4.1918  -3.6880   3.5096   5.9813   6.4865   7.0225
     7.7682   7.9753  15.1569  16.6300

          k =-0.0361-0.1875 0.2690 (  3736 PWs)   bands (ev):

    -7.4888  -7.2763  -4.5996  -4.5788  -4.5641  -4.5451  -4.4078  -4.3268
    -4.2399  -4.2219  -4.1517  -3.9890   4.4396   5.2958   6.8969   7.2371
     7.4359   7.5217  15.7588  16.3063

          k = 0.0361-0.0625 0.0384 (  3743 PWs)   bands (ev):

    -8.2158  -7.0071  -4.6724  -4.6529  -4.6142  -4.5718  -4.5532  -4.2753
    -4.2751  -4.1703  -4.1639  -3.1745   1.7951   7.0811   7.1209   8.0335
     8.2629   8.8374  13.1486  15.6523

          k = 0.0361-0.0625 0.1153 (  3746 PWs)   bands (ev):

    -8.1172  -7.0830  -4.6686  -4.6556  -4.5848  -4.5829  -4.5694  -4.2676
    -4.2664  -4.1818  -4.1739  -3.4893   2.5108   7.1196   7.2012   7.6999
     8.1677   8.4057  13.7544  15.6434

          k = 0.0361-0.0625 0.1921 (  3749 PWs)   bands (ev):

    -7.9301  -7.2300  -4.6585  -4.6474  -4.6009  -4.5911  -4.5324  -4.2523
    -4.2484  -4.2040  -4.1903  -3.8721   3.5138   6.8712   7.2754   7.3555
     8.0006   8.0458  14.5024  15.6487

          k = 0.0361-0.0625 0.2690 (  3727 PWs)   bands (ev):

    -7.6893  -7.4410  -4.6424  -4.6320  -4.6221  -4.6122  -4.4271  -4.2673
    -4.2322  -4.2201  -4.2105  -4.1503   4.6414   5.7950   7.4956   7.5613
     7.7602   7.7877  15.1416  15.5289

          k = 0.3248 0.1875 0.0384 (  3730 PWs)   bands (ev):

    -7.3731  -6.7925  -4.6102  -4.5216  -4.4181  -4.3930  -4.3282  -4.2937
    -4.2588  -4.2392  -4.0049  -2.6308   2.8504   4.5240   4.5440   5.8124
     7.3460   7.8034  16.3331  17.2403

          k = 0.3248 0.1875 0.1153 (  3726 PWs)   bands (ev):

    -7.3094  -6.8133  -4.5939  -4.5347  -4.4240  -4.4046  -4.3197  -4.3169
    -4.2424  -4.2395  -3.9648  -2.8318   2.8804   4.4294   5.0101   5.7565
     7.1668   7.8769  16.1399  17.1593

          k = 0.3248 0.1875 0.1921 (  3737 PWs)   bands (ev):

    -7.1961  -6.8615  -4.5671  -4.5446  -4.4315  -4.4250  -4.3382  -4.3312
    -4.2338  -4.2247  -3.8714  -3.1475   3.0429   4.1414   5.7760   5.8465
     6.8611   7.7871  16.0216  16.9257

          k = 0.3248 0.1875 0.2690 (  3725 PWs)   bands (ev):

    -7.0626  -6.9445  -4.5443  -4.5421  -4.4428  -4.4412  -4.3509  -4.3487
    -4.2229  -4.2191  -3.7087  -3.4635   3.3530   3.7469   6.1068   6.4107
     6.7025   7.3695  16.1762  16.5467

          k = 0.3969 0.3125 0.0384 (  3724 PWs)   bands (ev):

    -7.0410  -6.7494  -4.6180  -4.4661  -4.3763  -4.3565  -4.3205  -4.3052
    -4.2378  -4.2111  -3.4452  -2.5596   2.8095   3.6762   4.6517   4.9458
     6.7989   6.9800  16.1852  17.4955

          k = 0.3969 0.3125 0.1153 (  3717 PWs)   bands (ev):

    -7.0023  -6.7537  -4.5971  -4.4876  -4.4006  -4.3566  -4.3215  -4.2877
    -4.2351  -4.2230  -3.4040  -2.6455   2.5882   3.4953   4.7179   5.4430
     6.5816   7.2444  16.1473  17.3388

          k = 0.3969 0.3125 0.1921 (  3727 PWs)   bands (ev):

    -6.9376  -6.7704  -4.5636  -4.5080  -4.4373  -4.3597  -4.3230  -4.2899
    -4.2377  -4.2144  -3.3175  -2.8043   2.4434   3.1465   4.9241   6.0908
     6.3022   7.4740  16.0320  17.0179

          k = 0.3969 0.3125 0.2690 (  3725 PWs)   bands (ev):

    -6.8663  -6.8074  -4.5382  -4.5200  -4.4407  -4.3983  -4.3154  -4.3039
    -4.2223  -4.2119  -3.1812  -3.0000   2.5107   2.7760   5.2800   5.7182
     6.9361   7.3955  16.1015  16.4997

          k = 0.4691 0.4375 0.0384 (  3709 PWs)   bands (ev):

    -6.9565  -6.7514  -4.6209  -4.4513  -4.3681  -4.3616  -4.3136  -4.2976
    -4.2336  -4.2089  -3.1578  -2.6673   2.6550   3.6365   4.3530   5.2239
     6.5444   6.7373  15.9479  17.8124

          k = 0.4691 0.4375 0.1153 (  3719 PWs)   bands (ev):

    -6.9256  -6.7506  -4.5991  -4.4704  -4.4125  -4.3436  -4.3156  -4.2737
    -4.2324  -4.2264  -3.1311  -2.7033   2.4540   3.3196   4.4438   5.7345
     6.4287   6.9617  15.9599  17.6846

          k = 0.4691 0.4375 0.1921 (  3710 PWs)   bands (ev):

    -6.8759  -6.7580  -4.5645  -4.4857  -4.4589  -4.3428  -4.3167  -4.2723
    -4.2341  -4.2229  -3.0757  -2.7772   2.2742   2.8872   4.7012   6.0246
     6.4342   7.3068  15.9053  17.2316

          k = 0.4691 0.4375 0.2690 (  3729 PWs)   bands (ev):

    -6.8235  -6.7819  -4.5376  -4.5109  -4.4491  -4.3939  -4.2970  -4.2834
    -4.2237  -4.2185  -2.9900  -2.8817   2.2796   2.5058   5.0878   5.5521
     7.0444   7.3720  16.0251  16.5188

          k =-0.0361-0.4375 0.0384 (  3727 PWs)   bands (ev):

    -7.1869  -6.7619  -4.6136  -4.4916  -4.3901  -4.3673  -4.3241  -4.3084
    -4.2467  -4.2185  -3.7572  -2.5496   2.9372   3.9635   4.5499   5.2739
     7.0416   7.4081  16.6183  17.0059

          k =-0.0361-0.4375 0.1153 (  3727 PWs)   bands (ev):

    -7.1362  -6.7737  -4.5945  -4.5107  -4.3970  -4.3806  -4.3247  -4.3046
    -4.2385  -4.2268  -3.7110  -2.6959   2.7692   3.8752   5.0628   5.2758
     6.8362   7.5833  16.4157  16.9491

          k =-0.0361-0.4375 0.1921 (  3730 PWs)   bands (ev):

    -7.0485  -6.8045  -4.5635  -4.5284  -4.4220  -4.3906  -4.3333  -4.3117
    -4.2368  -4.2151  -3.6113  -2.9445   2.7321   3.5903   5.3324   5.9280
     6.5000   7.6542  16.1685  16.8158

          k =-0.0361-0.4375 0.2690 (  3730 PWs)   bands (ev):

    -6.9478  -6.8619  -4.5399  -4.5318  -4.4338  -4.4120  -4.3376  -4.3305
    -4.2213  -4.2118  -3.4484  -3.2183   2.9027   3.2229   5.6404   6.0295
     6.7936   7.3961  16.1929  16.4939

          k = 0.0361-0.3125 0.0384 (  3729 PWs)   bands (ev):

    -7.5745  -6.8364  -4.6109  -4.5502  -4.4605  -4.4250  -4.3338  -4.3058
    -4.2797  -4.2541  -4.1327  -2.7528   2.6136   4.7677   5.2646   6.2787
     7.6671   8.1240  15.6530  17.7739

          k = 0.0361-0.3125 0.1153 (  3739 PWs)   bands (ev):

    -7.4989  -6.8674  -4.5980  -4.5565  -4.4670  -4.4355  -4.3453  -4.3074
    -4.2653  -4.2378  -4.1186  -2.9959   2.8704   4.9603   5.2654   6.2415
     7.5146   8.0981  15.6056  17.6456

          k = 0.0361-0.3125 0.1921 (  3735 PWs)   bands (ev):

    -7.3624  -6.9353  -4.5764  -4.5564  -4.4757  -4.4534  -4.3566  -4.3280
    -4.2432  -4.2241  -4.0560  -3.3510   3.2901   4.7215   5.7838   6.3479
     7.2481   7.8656  15.6985  17.1357

          k = 0.0361-0.3125 0.2690 (  3742 PWs)   bands (ev):

    -7.1981  -7.0469  -4.5544  -4.5478  -4.4824  -4.4736  -4.3602  -4.3493
    -4.2314  -4.2242  -3.9139  -3.6785   3.7778   4.2732   6.4947   6.6325
     6.9366   7.3398  16.0414  16.5648

          k = 0.1083-0.1875 0.0384 (  3748 PWs)   bands (ev):

    -7.8972  -6.9213  -4.6307  -4.5917  -4.5343  -4.5065  -4.4512  -4.3028
    -4.2871  -4.2200  -4.1709  -2.9636   2.1756   5.6368   6.6385   6.6602
     8.0700   8.5297  14.5894  16.8822

          k = 0.1083-0.1875 0.1153 (  3732 PWs)   bands (ev):

    -7.8068  -6.9703  -4.6229  -4.5898  -4.5308  -4.5171  -4.4534  -4.2895
    -4.2793  -4.2222  -4.1816  -3.2522   2.6964   5.7599   6.3929   6.7436
     7.9548   8.3394  14.8011  16.8684

          k = 0.1083-0.1875 0.1921 (  3741 PWs)   bands (ev):

    -7.6411  -7.0735  -4.6079  -4.5772  -4.5367  -4.5298  -4.4402  -4.2907
    -4.2648  -4.2019  -4.2002  -3.6306   3.4940   5.6967   6.2809   6.9390
     7.7463   7.9240  15.2198  16.7462

          k = 0.1083-0.1875 0.2690 (  3737 PWs)   bands (ev):

    -7.4349  -7.2333  -4.5865  -4.5614  -4.5566  -4.5386  -4.3935  -4.3314
    -4.2451  -4.2226  -4.1200  -3.9389   4.3391   5.1022   6.7313   7.1968
     7.3389   7.4798  15.7795  16.3526

          k = 0.5413 0.3125 0.0384 (  3722 PWs)   bands (ev):

    -6.8532  -6.7894  -4.6227  -4.4109  -4.3821  -4.3385  -4.3232  -4.2946
    -4.2393  -4.2234  -2.9091  -2.6965   3.2438   3.3085   3.7007   5.6537
     6.1451   6.1685  15.5850  18.7235

          k = 0.5413 0.3125 0.1153 (  3711 PWs)   bands (ev):

    -6.8318  -6.7775  -4.5976  -4.4435  -4.4195  -4.3133  -4.2966  -4.2939
    -4.2524  -4.2402  -2.8921  -2.7067   2.9950   3.1605   3.6410   5.8640
     6.1510   6.5829  15.9982  18.2031

          k = 0.5413 0.3125 0.1921 (  3718 PWs)   bands (ev):

    -6.8014  -6.7647  -4.5499  -4.4770  -4.4581  -4.3350  -4.2859  -4.2760
    -4.2629  -4.2407  -2.8594  -2.7299   2.6664   2.8319   3.9174   5.4113
     6.7630   7.0695  16.6698  17.5223

          k = 0.5413 0.3125 0.2690 (  3710 PWs)   bands (ev):

    -6.7757  -6.7628  -4.4992  -4.4967  -4.4708  -4.4043  -4.2739  -4.2690
    -4.2486  -4.2410  -2.8149  -2.7676   2.4993   2.5652   4.3577   4.8781
     7.2217   7.3349  17.0851  17.1037

          k = 0.6134 0.4375 0.0384 (  3713 PWs)   bands (ev):

    -6.9326  -6.7595  -4.6220  -4.4383  -4.3668  -4.3533  -4.3167  -4.2995
    -4.2375  -4.2198  -3.1617  -2.5934   2.9837   3.4272   4.1916   5.2245
     6.3915   6.5874  15.8122  18.2088

          k = 0.6134 0.4375 0.1153 (  3716 PWs)   bands (ev):

    -6.9030  -6.7554  -4.5983  -4.4659  -4.4048  -4.3350  -4.3048  -4.2885
    -4.2446  -4.2325  -3.1292  -2.6370   2.7474   3.2660   4.1440   5.7529
     6.1532   6.9291  16.1084  17.7448

          k = 0.6134 0.4375 0.1921 (  3721 PWs)   bands (ev):

    -6.8565  -6.7571  -4.5562  -4.4936  -4.4438  -4.3416  -4.3040  -4.2878
    -4.2493  -4.2248  -3.0631  -2.7233   2.5142   2.9501   4.3338   5.6933
     6.4909   7.2925  16.4471  17.2283

          k = 0.6134 0.4375 0.2690 (  3717 PWs)   bands (ev):

    -6.8093  -6.7742  -4.5207  -4.5078  -4.4508  -4.3978  -4.2967  -4.2905
    -4.2322  -4.2223  -2.9636  -2.8413   2.4641   2.6341   4.7165   5.1966
     7.0906   7.3868  16.5799  16.8384

          k = 0.1083-0.4375 0.0384 (  3725 PWs)   bands (ev):

    -7.1731  -6.7587  -4.6082  -4.4922  -4.4044  -4.3604  -4.3321  -4.3060
    -4.2448  -4.1976  -3.7086  -2.5795   2.7586   3.8814   4.5938   5.3831
     7.2330   7.3273  16.4015  16.9513

          k = 0.1083-0.4375 0.1153 (  3724 PWs)   bands (ev):

    -7.1249  -6.7716  -4.5908  -4.5077  -4.4162  -4.3723  -4.3410  -4.2878
    -4.2381  -4.2080  -3.6640  -2.7110   2.5655   3.7902   4.9663   5.5275
     7.0529   7.5064  15.8834  17.0413

          k = 0.1083-0.4375 0.1921 (  3730 PWs)   bands (ev):

    -7.0410  -6.8035  -4.5659  -4.5193  -4.4463  -4.3856  -4.3378  -4.2861
    -4.2339  -4.2102  -3.5685  -2.9395   2.5077   3.4277   5.4654   6.0219
     6.7251   7.5980  15.5856  16.7270

          k = 0.1083-0.4375 0.2690 (  3726 PWs)   bands (ev):

    -6.9441  -6.8605  -4.5467  -4.5266  -4.4504  -4.4170  -4.3232  -4.3035
    -4.2223  -4.2119  -3.4138  -3.1961   2.6755   3.0141   5.8746   6.2849
     6.7857   7.3600  15.6933  16.1632

          k = 0.1804-0.3125 0.0384 (  3728 PWs)   bands (ev):

    -7.4414  -6.8081  -4.5891  -4.5343  -4.4603  -4.4125  -4.3337  -4.3062
    -4.2689  -4.1731  -4.0660  -2.6851   2.7469   4.0505   5.1322   6.0506
     7.7647   7.8328  15.6373  16.8553

          k = 0.1804-0.3125 0.1153 (  3734 PWs)   bands (ev):

    -7.3760  -6.8352  -4.5749  -4.5447  -4.4670  -4.4235  -4.3427  -4.2965
    -4.2642  -4.1844  -4.0207  -2.8932   2.7614   4.3571   5.0420   6.1753
     7.6237   7.8659  15.3321  16.7973

          k = 0.1804-0.3125 0.1921 (  3733 PWs)   bands (ev):

    -7.2578  -6.8932  -4.5506  -4.5489  -4.4852  -4.4463  -4.3388  -4.2965
    -4.2550  -4.2030  -3.9259  -3.2160   2.9323   4.1526   5.5938   6.4064
     7.3697   7.7088  15.1943  16.5154

          k = 0.1804-0.3125 0.2690 (  3734 PWs)   bands (ev):

    -7.1158  -6.9871  -4.5384  -4.5152  -4.5122  -4.4789  -4.3245  -4.3075
    -4.2414  -4.2234  -3.7694  -3.5313   3.2703   3.7044   6.4429   6.7116
     7.0488   7.2136  15.4401  15.9692

          k = 0.7578 0.4375 0.0384 (  3705 PWs)   bands (ev):

    -6.9988  -6.7444  -4.6127  -4.4739  -4.3793  -4.3634  -4.3181  -4.2931
    -4.2282  -4.1933  -3.1899  -2.7509   2.4425   3.6066   4.6499   5.2854
     6.6375   7.1032  16.1405  16.8840

          k = 0.7578 0.4375 0.1153 (  3712 PWs)   bands (ev):

    -6.9657  -6.7487  -4.5941  -4.4848  -4.4160  -4.3589  -4.3277  -4.2619
    -4.2264  -4.2076  -3.1690  -2.7825   2.2340   3.2589   4.8910   5.6794
     6.8026   7.0630  15.6980  16.8655

          k = 0.7578 0.4375 0.1921 (  3722 PWs)   bands (ev):

    -6.9107  -6.7646  -4.5687  -4.4846  -4.4723  -4.3532  -4.3280  -4.2545
    -4.2224  -4.2148  -3.1236  -2.8507   2.0679   2.7943   5.2202   6.3179
     6.4921   7.3337  15.3830  16.5934

          k = 0.7578 0.4375 0.2690 (  3729 PWs)   bands (ev):

    -6.8498  -6.7984  -4.5492  -4.5194  -4.4505  -4.3984  -4.2963  -4.2708
    -4.2167  -4.2125  -3.0492  -2.9496   2.1100   2.3780   5.6159   6.0584
     6.9470   7.3345  15.4719  15.9835

          k = 0.2526-0.4375 0.0384 (  3720 PWs)   bands (ev):

    -7.1056  -6.7498  -4.5743  -4.5272  -4.4058  -4.3484  -4.3481  -4.2891
    -4.2317  -4.1745  -3.4661  -2.7055   2.3910   3.6939   4.5736   5.6720
     6.9391   7.5400  15.8967  16.2919

          k = 0.2526-0.4375 0.1153 (  3718 PWs)   bands (ev):

    -7.0659  -6.7626  -4.5553  -4.5369  -4.4210  -4.3690  -4.3598  -4.2562
    -4.2301  -4.1857  -3.4328  -2.7787   2.1735   3.3913   5.0890   5.8069
     7.1942   7.3843  15.3090  16.0838

          k = 0.2526-0.4375 0.1921 (  3724 PWs)   bands (ev):

    -6.9964  -6.7929  -4.5494  -4.5200  -4.4726  -4.3858  -4.3376  -4.2419
    -4.2272  -4.2010  -3.3625  -2.9190   2.0469   2.9318   5.8553   6.0561
     7.1045   7.3751  14.8806  15.9157

          k = 0.2526-0.4375 0.2690 (  3732 PWs)   bands (ev):

    -6.9151  -6.8437  -4.5467  -4.5191  -4.4744  -4.4264  -4.2930  -4.2551
    -4.2223  -4.2139  -3.2500  -3.0939   2.1616   2.4878   6.3860   6.6289
     6.7527   7.1958  14.9621  15.4430

     highest occupied, lowest unoccupied level (ev):     8.8374   13.1486

!    total energy              =    -543.06364295 Ry
     Harris-Foulkes estimate   =    -543.06364299 Ry
     estimated scf accuracy    <       0.00000008 Ry

     convergence has been achieved in  10 iterations

     Using ACE for calculation of exact exchange

     total energy              =    -543.06656043 Ry
     Harris-Foulkes estimate   =    -543.06656047 Ry
     est. exchange err (dexx)  =       0.00291748 Ry
     - averaged Fock potential =      18.25395312 Ry
     + Fock energy (ACE)       =      -9.08801543 Ry

     EXX: now go back to refine exchange calculation

     total cpu time spent up to now is     8511.1 secs

     Self-consistent Calculation

     iteration #  1     ecut=    80.00 Ry     beta= 0.70
     Davidson diagonalization with overlap
     ethr =  2.82E-09,  avg # of iterations =  5.3

     total cpu time spent up to now is     8572.6 secs

     total energy              =    -543.06665864 Ry
     Harris-Foulkes estimate   =    -543.06695155 Ry
     estimated scf accuracy    <       0.00048140 Ry

     iteration #  2     ecut=    80.00 Ry     beta= 0.70
     Davidson diagonalization with overlap
     ethr =  1.34E-06,  avg # of iterations =  4.0

     total cpu time spent up to now is     8609.8 secs

     total energy              =    -543.06677901 Ry
     Harris-Foulkes estimate   =    -543.06684515 Ry
     estimated scf accuracy    <       0.00015934 Ry

     iteration #  3     ecut=    80.00 Ry     beta= 0.70
     Davidson diagonalization with overlap
     ethr =  4.43E-07,  avg # of iterations =  1.1

     total cpu time spent up to now is     8633.6 secs

     total energy              =    -543.06678020 Ry
     Harris-Foulkes estimate   =    -543.06678834 Ry
     estimated scf accuracy    <       0.00002602 Ry

     iteration #  4     ecut=    80.00 Ry     beta= 0.70
     Davidson diagonalization with overlap
     ethr =  7.23E-08,  avg # of iterations =  4.0

     total cpu time spent up to now is     8673.0 secs

     total energy              =    -543.06680182 Ry
     Harris-Foulkes estimate   =    -543.06680759 Ry
     estimated scf accuracy    <       0.00002146 Ry

     iteration #  5     ecut=    80.00 Ry     beta= 0.70
     Davidson diagonalization with overlap
     ethr =  5.96E-08,  avg # of iterations =  1.0

     total cpu time spent up to now is     8696.8 secs

     total energy              =    -543.06680060 Ry
     Harris-Foulkes estimate   =    -543.06680232 Ry
     estimated scf accuracy    <       0.00000685 Ry

     iteration #  6     ecut=    80.00 Ry     beta= 0.70
     Davidson diagonalization with overlap
     ethr =  1.90E-08,  avg # of iterations =  3.1

     total cpu time spent up to now is     8730.0 secs

     End of self-consistent calculation

          k = 0.1083 0.0625 0.0384 (  3752 PWs)   bands (ev):

    -8.1513  -7.0278  -4.7267  -4.6958  -4.6609  -4.6166  -4.5907  -4.3432
    -4.3404  -4.2490  -4.2262  -3.1761   1.8633   6.6931   6.9016   7.5903
     8.1591   8.7264  13.6541  16.0926

          k = 0.1083 0.0625 0.1153 (  3745 PWs)   bands (ev):

    -8.0534  -7.0902  -4.7215  -4.6957  -4.6444  -4.6199  -4.6067  -4.3329
    -4.3309  -4.2613  -4.2361  -3.4859   2.5241   6.7624   6.9513   7.2970
     8.0596   8.4047  14.1215  16.0763

          k = 0.1083 0.0625 0.1921 (  3733 PWs)   bands (ev):

    -7.8722  -7.2186  -4.7099  -4.6857  -4.6510  -4.6272  -4.5830  -4.3200
    -4.3067  -4.2882  -4.2528  -3.8682   3.4925   6.5321   6.9466   7.2113
     7.8819   7.9853  14.7845  16.0470

          k = 0.1083 0.0625 0.2690 (  3732 PWs)   bands (ev):

    -7.6424  -7.4102  -4.6925  -4.6715  -4.6687  -4.6485  -4.4867  -4.3597
    -4.2952  -4.2774  -4.2606  -4.1517   4.5652   5.6202   7.2315   7.4123
     7.5902   7.6560  15.4212  15.8666

          k = 0.1804 0.1875 0.0384 (  3743 PWs)   bands (ev):

    -7.7779  -6.9173  -4.6819  -4.6370  -4.5642  -4.5292  -4.4607  -4.3680
    -4.3440  -4.2948  -4.2235  -2.9216   2.3464   5.1527   5.9864   6.5463
     7.8944   8.3270  15.0472  17.2226

          k = 0.1804 0.1875 0.1153 (  3742 PWs)   bands (ev):

    -7.6941  -6.9572  -4.6721  -4.6388  -4.5679  -4.5390  -4.4613  -4.3581
    -4.3359  -4.2865  -4.2298  -3.1942   2.7645   5.3241   5.8505   6.5505
     7.7659   8.2061  15.1353  17.2063

          k = 0.1804 0.1875 0.1921 (  3737 PWs)   bands (ev):

    -7.5414  -7.0419  -4.6541  -4.6304  -4.5764  -4.5551  -4.4549  -4.3696
    -4.3172  -4.2714  -4.2121  -3.5695   3.4128   5.2421   5.9632   6.7017
     7.5343   7.8619  15.4066  16.9772

          k = 0.1804 0.1875 0.2690 (  3734 PWs)   bands (ev):

    -7.3541  -7.1769  -4.6313  -4.6167  -4.5862  -4.5727  -4.4336  -4.3997
    -4.3005  -4.2830  -4.1040  -3.8928   4.0991   4.7278   6.5573   6.9565
     7.2086   7.3219  15.8800  16.4607

          k = 0.2526 0.3125 0.0384 (  3722 PWs)   bands (ev):

    -7.3303  -6.8077  -4.6543  -4.5734  -4.4952  -4.4450  -4.3908  -4.3645
    -4.3157  -4.2397  -3.9671  -2.6678   2.7593   3.9067   4.7710   5.7983
     7.5427   7.5883  15.9349  16.8904

          k = 0.2526 0.3125 0.1153 (  3737 PWs)   bands (ev):

    -7.2743  -6.8289  -4.6398  -4.5859  -4.5032  -4.4561  -4.4055  -4.3466
    -4.3101  -4.2500  -3.9215  -2.8433   2.6327   4.0843   4.8962   5.9165
     7.4035   7.6721  15.5046  16.7638

          k = 0.2526 0.3125 0.1921 (  3731 PWs)   bands (ev):

    -7.1741  -6.8749  -4.6205  -4.5903  -4.5268  -4.4775  -4.3995  -4.3428
    -4.3019  -4.2635  -3.8240  -3.1303   2.6735   3.7648   5.5894   6.1694
     7.1216   7.6241  15.2625  16.4819

          k = 0.2526 0.3125 0.2690 (  3736 PWs)   bands (ev):

    -7.0552  -6.9499  -4.6048  -4.5845  -4.5383  -4.5090  -4.3798  -4.3568
    -4.2903  -4.2767  -3.6638  -3.4282   2.9286   3.3231   6.3058   6.6057
     6.7723   7.2482  15.4384  15.9412

          k = 0.3248 0.4375 0.0384 (  3710 PWs)   bands (ev):

    -7.0679  -6.7646  -4.6512  -4.5585  -4.4478  -4.4157  -4.3905  -4.3469
    -4.2851  -4.2375  -3.3503  -2.7908   2.3452   3.5994   4.6590   5.4945
     6.7439   7.3860  16.1089  16.2698

[...]
    -4.2916  -4.2463  -3.6105  -2.7747   2.3163   3.5909   4.9626   5.7305
     7.2294   7.3606  15.4616  16.4197

          k =-0.1804-0.4375 0.1921 (  3733 PWs)   bands (ev):

    -7.0433  -6.8238  -4.6167  -4.5695  -4.5237  -4.4438  -4.3935  -4.3132
    -4.2870  -4.2593  -3.5244  -2.9679   2.2245   3.1586   5.6468   6.0669
     6.9645   7.4486  15.0975  16.2080

          k =-0.1804-0.4375 0.2690 (  3731 PWs)   bands (ev):

    -6.9559  -6.8790  -4.6049  -4.5786  -4.5239  -4.4816  -4.3593  -4.3279
    -4.2794  -4.2689  -3.3863  -3.1928   2.3724   2.7152   6.1666   6.5684
     6.6913   7.2303  15.2046  15.6947

          k =-0.1083-0.3125 0.0384 (  3732 PWs)   bands (ev):

    -7.5478  -6.8573  -4.6624  -4.5996  -4.5218  -4.4847  -4.3913  -4.3653
    -4.3305  -4.2572  -4.1806  -2.7715   2.6542   4.3512   5.3609   6.1194
     7.7220   7.9804  15.6065  17.1801

          k =-0.1083-0.3125 0.1153 (  3733 PWs)   bands (ev):

    -7.4771  -6.8871  -4.6499  -4.6088  -4.5272  -4.4957  -4.3944  -4.3676
    -4.3235  -4.2549  -4.1497  -3.0042   2.8209   4.6172   5.2420   6.1979
     7.5758   7.9695  15.4332  17.1366

          k =-0.1083-0.3125 0.1921 (  3734 PWs)   bands (ev):

    -7.3488  -6.9506  -4.6289  -4.6101  -4.5386  -4.5165  -4.3977  -4.3757
    -4.3104  -4.2639  -4.0666  -3.3516   3.1369   4.4840   5.6410   6.4023
     7.3152   7.7577  15.4151  16.8069

          k =-0.1083-0.3125 0.2690 (  3740 PWs)   bands (ev):

    -7.1943  -7.0536  -4.6066  -4.5972  -4.5524  -4.5416  -4.3963  -4.3877
    -4.2950  -4.2790  -3.9167  -3.6785   3.5616   4.0353   6.4032   6.7139
     6.9773   7.2550  15.7143  16.2483

          k =-0.0361-0.1875 0.0384 (  3750 PWs)   bands (ev):

    -7.9921  -6.9812  -4.7042  -4.6682  -4.6145  -4.5718  -4.5443  -4.3535
    -4.3432  -4.2741  -4.2246  -3.0659   2.0575   6.0055   6.5140   7.0534
     8.0377   8.5661  14.3576  16.7489

          k =-0.0361-0.1875 0.1153 (  3743 PWs)   bands (ev):

    -7.8990  -7.0323  -4.6970  -4.6648  -4.6124  -4.5770  -4.5504  -4.3391
    -4.3344  -4.2837  -4.2343  -3.3627   2.6227   6.1179   6.4562   6.9176
     7.9262   8.3463  14.6512  16.7231

          k =-0.0361-0.1875 0.1921 (  3739 PWs)   bands (ev):

    -7.7284  -7.1400  -4.6829  -4.6513  -4.6194  -4.5879  -4.5328  -4.3394
    -4.3106  -4.2877  -4.2485  -3.7447   3.4866   5.9630   6.4597   6.9862
     7.7253   7.9291  15.1602  16.6241

          k =-0.0361-0.1875 0.2690 (  3736 PWs)   bands (ev):

    -7.5155  -7.3064  -4.6632  -4.6424  -4.6259  -4.6060  -4.4675  -4.3856
    -4.2967  -4.2789  -4.2095  -4.0473   4.4189   5.2775   6.8664   7.2001
     7.3969   7.4806  15.7605  16.3027

          k = 0.0361-0.0625 0.0384 (  3743 PWs)   bands (ev):

    -8.2478  -7.0603  -4.7385  -4.7217  -4.6804  -4.6378  -4.6214  -4.3334
    -4.3328  -4.2298  -4.2226  -3.2375   1.7772   7.0164   7.0819   7.9769
     8.2094   8.7784  13.1379  15.6518

          k = 0.0361-0.0625 0.1153 (  3746 PWs)   bands (ev):

    -8.1462  -7.1303  -4.7344  -4.7225  -4.6503  -4.6485  -4.6356  -4.3254
    -4.3247  -4.2411  -4.2326  -3.5511   2.4907   7.0705   7.1617   7.6631
     8.1159   8.3482  13.7458  15.6469

          k = 0.0361-0.0625 0.1921 (  3749 PWs)   bands (ev):

    -7.9589  -7.2709  -4.7241  -4.7136  -4.6663  -4.6568  -4.5971  -4.3105
    -4.3071  -4.2634  -4.2490  -3.9340   3.4947   6.8482   7.2293   7.3145
     7.9514   7.9884  14.4997  15.6530

          k = 0.0361-0.0625 0.2690 (  3727 PWs)   bands (ev):

    -7.7203  -7.4762  -4.7078  -4.6978  -4.6874  -4.6779  -4.4910  -4.3285
    -4.2907  -4.2795  -4.2692  -4.2115   4.6225   5.7752   7.4475   7.5181
     7.7079   7.7417  15.1433  15.5326

          k = 0.3248 0.1875 0.0384 (  3730 PWs)   bands (ev):

    -7.3886  -6.8189  -4.6683  -4.5801  -4.4746  -4.4437  -4.3802  -4.3512
    -4.3144  -4.2949  -4.0535  -2.6692   2.8344   4.5008   4.5367   5.7927
     7.3209   7.7656  16.3466  17.2250

          k = 0.3248 0.1875 0.1153 (  3726 PWs)   bands (ev):

    -7.3258  -6.8395  -4.6521  -4.5942  -4.4788  -4.4559  -4.3740  -4.3734
    -4.2971  -4.2956  -4.0135  -2.8717   2.8626   4.4216   4.9870   5.7359
     7.1430   7.8359  16.1518  17.1434

          k = 0.3248 0.1875 0.1921 (  3737 PWs)   bands (ev):

    -7.2143  -6.8866  -4.6257  -4.6053  -4.4849  -4.4770  -4.3939  -4.3866
    -4.2887  -4.2807  -3.9197  -3.1899   3.0235   4.1311   5.7508   5.8262
     6.8382   7.7436  16.0318  16.9175

          k = 0.3248 0.1875 0.2690 (  3725 PWs)   bands (ev):

    -7.0831  -6.9675  -4.6039  -4.6029  -4.4951  -4.4936  -4.4061  -4.4041
    -4.2783  -4.2748  -3.7559  -3.5087   3.3346   3.7325   6.0871   6.3916
     6.6689   7.3295  16.1815  16.5453

          k = 0.3969 0.3125 0.0384 (  3724 PWs)   bands (ev):

    -7.0529  -6.7671  -4.6718  -4.5195  -4.4301  -4.4100  -4.3735  -4.3557
    -4.2915  -4.2643  -3.4863  -2.5899   2.7989   3.6705   4.6367   4.9227
     6.7844   6.9508  16.1847  17.4956

          k = 0.3969 0.3125 0.1153 (  3717 PWs)   bands (ev):

    -7.0151  -6.7719  -4.6513  -4.5421  -4.4537  -4.4099  -4.3724  -4.3397
    -4.2896  -4.2772  -3.4450  -2.6774   2.5750   3.4883   4.7053   5.4163
     6.5699   7.2103  16.1447  17.3424

          k = 0.3969 0.3125 0.1921 (  3727 PWs)   bands (ev):

    -6.9525  -6.7893  -4.6192  -4.5641  -4.4899  -4.4091  -4.3764  -4.3432
    -4.2920  -4.2691  -3.3578  -2.8392   2.4287   3.1359   4.9126   6.0724
     6.2783   7.4334  16.0318  17.0210

          k = 0.3969 0.3125 0.2690 (  3725 PWs)   bands (ev):

    -6.8835  -6.8262  -4.5958  -4.5777  -4.4913  -4.4477  -4.3691  -4.3573
    -4.2766  -4.2665  -3.2205  -3.0375   2.4956   2.7622   5.2693   5.7081
     6.8962   7.3514  16.1058  16.5037

          k = 0.4691 0.4375 0.0384 (  3709 PWs)   bands (ev):

    -6.9682  -6.7665  -4.6737  -4.5019  -4.4233  -4.4160  -4.3669  -4.3466
    -4.2861  -4.2619  -3.1965  -2.6960   2.6457   3.6316   4.3413   5.1973
     6.5186   6.7235  15.9465  17.7944

          k = 0.4691 0.4375 0.1153 (  3719 PWs)   bands (ev):

    -6.9382  -6.7665  -4.6525  -4.5217  -4.4681  -4.3970  -4.3640  -4.3267
    -4.2859  -4.2803  -3.1697  -2.7333   2.4422   3.3117   4.4326   5.7065
     6.4185   6.9308  15.9515  17.6805

          k = 0.4691 0.4375 0.1921 (  3710 PWs)   bands (ev):

    -6.8905  -6.7752  -4.6195  -4.5391  -4.5130  -4.3904  -4.3701  -4.3266
    -4.2881  -4.2768  -3.1140  -2.8102   2.2606   2.8757   4.6910   6.0160
     6.4004   7.2681  15.9023  17.2325

          k = 0.4691 0.4375 0.2690 (  3729 PWs)   bands (ev):

    -6.8403  -6.7997  -4.5946  -4.5682  -4.4992  -4.4429  -4.3507  -4.3373
    -4.2775  -4.2725  -3.0275  -2.9176   2.2655   2.4920   5.0785   5.5435
     7.0028   7.3277  16.0289  16.5231

          k =-0.0361-0.4375 0.0384 (  3727 PWs)   bands (ev):

    -7.2000  -6.7836  -4.6693  -4.5480  -4.4448  -4.4176  -4.3744  -4.3650
    -4.3015  -4.2727  -3.8023  -2.5830   2.9245   3.9564   4.5261   5.2589
     7.0242   7.3740  16.6190  17.0161

          k =-0.0361-0.4375 0.1153 (  3727 PWs)   bands (ev):

    -7.1503  -6.7955  -4.6504  -4.5681  -4.4489  -4.4331  -4.3792  -4.3571
    -4.2934  -4.2816  -3.7559  -2.7311   2.7541   3.8685   5.0408   5.2572
     6.8201   7.5458  16.4188  16.9515

          k =-0.0361-0.4375 0.1921 (  3730 PWs)   bands (ev):

    -7.0644  -6.8261  -4.6202  -4.5870  -4.4739  -4.4418  -4.3875  -4.3656
    -4.2914  -4.2705  -3.6555  -2.9825   2.7155   3.5805   5.3176   5.9008
     6.4833   7.6117  16.1745  16.8153

          k =-0.0361-0.4375 0.2690 (  3730 PWs)   bands (ev):

    -6.9663  -6.8824  -4.5986  -4.5907  -4.4850  -4.4623  -4.3918  -4.3845
    -4.2762  -4.2670  -3.4914  -3.2590   2.8861   3.2090   5.6265   6.0161
     6.7567   7.3535  16.1985  16.4957

          k = 0.0361-0.3125 0.0384 (  3729 PWs)   bands (ev):

    -7.5927  -6.8676  -4.6715  -4.6102  -4.5189  -4.4794  -4.3897  -4.3612
    -4.3353  -4.3109  -4.1851  -2.7966   2.5952   4.7482   5.2522   6.2529
     7.6326   8.0827  15.6648  17.7385

          k = 0.0361-0.3125 0.1153 (  3739 PWs)   bands (ev):

    -7.5181  -6.8980  -4.6587  -4.6177  -4.5244  -4.4902  -4.4020  -4.3640
    -4.3206  -4.2938  -4.1708  -3.0408   2.8497   4.9466   5.2479   6.2143
     7.4814   8.0542  15.6164  17.5396

          k = 0.0361-0.3125 0.1921 (  3735 PWs)   bands (ev):

    -7.3832  -6.9640  -4.6371  -4.6184  -4.5321  -4.5084  -4.4132  -4.3847
    -4.2993  -4.2799  -4.1077  -3.3982   3.2676   4.7094   5.7621   6.3201
     7.2164   7.8218  15.7070  17.1010

          k = 0.0361-0.3125 0.2690 (  3742 PWs)   bands (ev):

    -7.2209  -7.0725  -4.6154  -4.6095  -4.5382  -4.5290  -4.4164  -4.4057
    -4.2874  -4.2801  -3.9653  -3.7285   3.7577   4.2577   6.4699   6.6047
     6.9048   7.3022  16.0444  16.5588

          k = 0.1083-0.1875 0.0384 (  3748 PWs)   bands (ev):

    -7.9194  -6.9598  -4.6943  -4.6554  -4.5935  -4.5698  -4.5095  -4.3591
    -4.3430  -4.2784  -4.2275  -3.0158   2.1561   5.6111   6.6067   6.6398
     8.0247   8.4819  14.5940  16.8777

          k = 0.1083-0.1875 0.1153 (  3732 PWs)   bands (ev):

    -7.8294  -7.0070  -4.6865  -4.6537  -4.5902  -4.5803  -4.5117  -4.3466
    -4.3354  -4.2800  -4.2382  -3.3050   2.6731   5.7375   6.3739   6.7108
     7.9108   8.2915  14.8063  16.8634

          k = 0.1083-0.1875 0.1921 (  3741 PWs)   bands (ev):

    -7.6647  -7.1066  -4.6712  -4.6405  -4.5997  -4.5894  -4.4987  -4.3491
    -4.3210  -4.2587  -4.2568  -3.6856   3.4697   5.6788   6.2593   6.9045
     7.7045   7.8809  15.2247  16.7368

          k = 0.1083-0.1875 0.2690 (  3737 PWs)   bands (ev):

    -7.4603  -7.2621  -4.6496  -4.6244  -4.6180  -4.5986  -4.4523  -4.3899
    -4.3015  -4.2791  -4.1772  -3.9959   4.3176   5.0839   6.7051   7.1601
     7.3047   7.4407  15.7815  16.3477

          k = 0.5413 0.3125 0.0384 (  3722 PWs)   bands (ev):

    -6.8643  -6.8020  -4.6705  -4.4663  -4.4374  -4.3928  -4.3779  -4.3407
    -4.2889  -4.2728  -2.9429  -2.7268   3.2376   3.2986   3.6926   5.6260
     6.1398   6.1432  15.5830  18.7325

          k = 0.5413 0.3125 0.1153 (  3711 PWs)   bands (ev):

    -6.8436  -6.7905  -4.6459  -4.4991  -4.4748  -4.3668  -4.3511  -4.3385
    -4.3055  -4.2902  -2.9261  -2.7378   2.9820   3.1511   3.6343   5.8626
     6.1227   6.5526  15.9968  18.1973

          k = 0.5413 0.3125 0.1921 (  3718 PWs)   bands (ev):

    -6.8146  -6.7789  -4.5990  -4.5335  -4.5140  -4.3805  -4.3401  -4.3297
    -4.3161  -4.2918  -2.8940  -2.7627   2.6509   2.8179   3.9136   5.4107
     6.7285   7.0331  16.6681  17.5203

          k = 0.5413 0.3125 0.2690 (  3710 PWs)   bands (ev):

    -6.7907  -6.7781  -4.5546  -4.5540  -4.5216  -4.4525  -4.3268  -4.3217
    -4.3015  -4.2934  -2.8500  -2.8023   2.4832   2.5494   4.3555   4.8768
     7.1800   7.2922  17.0834  17.1072

          k = 0.6134 0.4375 0.0384 (  3713 PWs)   bands (ev):

    -6.9435  -6.7742  -4.6722  -4.4930  -4.4208  -4.4076  -4.3713  -4.3459
    -4.2887  -4.2711  -3.1991  -2.6227   2.9742   3.4206   4.1829   5.1974
     6.3852   6.5587  15.8109  18.2160

          k = 0.6134 0.4375 0.1153 (  3716 PWs)   bands (ev):

    -6.9146  -6.7705  -4.6490  -4.5211  -4.4592  -4.3877  -4.3552  -4.3378
    -4.2985  -4.2847  -3.1666  -2.6675   2.7344   3.2581   4.1351   5.7262
     6.1478   6.8971  16.1068  17.7446

          k = 0.6134 0.4375 0.1921 (  3721 PWs)   bands (ev):

    -6.8699  -6.7731  -4.6084  -4.5498  -4.4979  -4.3881  -4.3573  -4.3408
    -4.3031  -4.2781  -3.1003  -2.7564   2.4991   2.9382   4.3270   5.6897
     6.4578   7.2542  16.4452  17.2310

          k = 0.6134 0.4375 0.2690 (  3717 PWs)   bands (ev):

    -6.8249  -6.7908  -4.5772  -4.5650  -4.5015  -4.4462  -4.3497  -4.3429
    -4.2857  -4.2759  -3.0004  -2.8769   2.4486   2.6193   4.7113   5.1925
     7.0498   7.3433  16.5837  16.8428

          k = 0.1083-0.4375 0.0384 (  3725 PWs)   bands (ev):

    -7.1867  -6.7801  -4.6650  -4.5451  -4.4591  -4.4145  -4.3852  -4.3611
    -4.3002  -4.2517  -3.7523  -2.6124   2.7474   3.8710   4.5761   5.3625
     7.2065   7.2979  16.3772  16.9352

          k = 0.1083-0.4375 0.1153 (  3724 PWs)   bands (ev):

    -7.1398  -6.7936  -4.6479  -4.5620  -4.4698  -4.4268  -4.3951  -4.3418
    -4.2938  -4.2627  -3.7075  -2.7458   2.5519   3.7829   4.9454   5.5043
     7.0307   7.4697  15.8759  17.0237

          k = 0.1083-0.4375 0.1921 (  3730 PWs)   bands (ev):

    -7.0582  -6.8259  -4.6237  -4.5759  -4.4993  -4.4388  -4.3929  -4.3401
    -4.2891  -4.2656  -3.6115  -2.9772   2.4928   3.4177   5.4462   5.9922
     6.7039   7.5551  15.5873  16.7236

          k = 0.1083-0.4375 0.2690 (  3726 PWs)   bands (ev):

    -6.9639  -6.8823  -4.6051  -4.5849  -4.5030  -4.4699  -4.3780  -4.3577
    -4.2776  -4.2673  -3.4559  -3.2365   2.6602   3.0008   5.8558   6.2659
     6.7469   7.3157  15.6969  16.1648

          k = 0.1804-0.3125 0.0384 (  3728 PWs)   bands (ev):

    -7.4576  -6.8360  -4.6491  -4.5895  -4.5178  -4.4728  -4.3896  -4.3627
    -4.3247  -4.2282  -4.1138  -2.7248   2.7314   4.0313   5.1236   6.0252
     7.7293   7.7953  15.6446  16.8425

          k = 0.1804-0.3125 0.1153 (  3734 PWs)   bands (ev):

    -7.3937  -6.8632  -4.6351  -4.6016  -4.5240  -4.4839  -4.3994  -4.3528
    -4.3200  -4.2397  -4.0683  -2.9345   2.7443   4.3417   5.0271   6.1489
     7.5891   7.8248  15.3371  16.7745

          k = 0.1804-0.3125 0.1921 (  3733 PWs)   bands (ev):

    -7.2776  -6.9204  -4.6092  -4.6092  -4.5417  -4.5066  -4.3958  -4.3526
    -4.3107  -4.2585  -3.9734  -3.2596   2.9136   4.1407   5.5692   6.3784
     7.3366   7.6655  15.2000  16.5037

          k = 0.1804-0.3125 0.2690 (  3734 PWs)   bands (ev):

    -7.1380  -7.0121  -4.5968  -4.5754  -4.5693  -4.5391  -4.3811  -4.3636
    -4.2971  -4.2791  -3.8166  -3.5774   3.2526   3.6900   6.4118   6.6821
     7.0176   7.1750  15.4432  15.9677

          k = 0.7578 0.4375 0.0384 (  3705 PWs)   bands (ev):

    -7.0116  -6.7606  -4.6681  -4.5230  -4.4313  -4.4199  -4.3704  -4.3470
    -4.2825  -4.2477  -3.2306  -2.7784   2.4327   3.6032   4.6331   5.2605
     6.6080   7.0845  16.1133  16.8753

          k = 0.7578 0.4375 0.1153 (  3712 PWs)   bands (ev):

    -6.9799  -6.7661  -4.6499  -4.5341  -4.4721  -4.4119  -4.3790  -4.3165
    -4.2808  -4.2626  -3.2095  -2.8119   2.2224   3.2523   4.8748   5.6510
     6.7804   7.0349  15.6863  16.8591

          k = 0.7578 0.4375 0.1921 (  3722 PWs)   bands (ev):

    -6.9272  -6.7839  -4.6251  -4.5351  -4.5287  -4.4044  -4.3819  -4.3092
    -4.2771  -4.2698  -3.1635  -2.8837   2.0550   2.7841   5.2039   6.2828
     6.4751   7.2936  15.3813  16.5924

          k = 0.7578 0.4375 0.2690 (  3729 PWs)   bands (ev):

    -6.8687  -6.8184  -4.6062  -4.5764  -4.5021  -4.4501  -4.3506  -4.3255
    -4.2714  -4.2672  -3.0880  -2.9862   2.0970   2.3655   5.5995   6.0420
     6.9040   7.2884  15.4754  15.9867

          k = 0.2526-0.4375 0.0384 (  3720 PWs)   bands (ev):

    -7.1193  -6.7686  -4.6313  -4.5795  -4.4576  -4.4062  -4.4030  -4.3456
    -4.2878  -4.2293  -3.5072  -2.7353   2.3801   3.6897   4.5522   5.6506
     6.9089   7.5116  15.8865  16.2566

          k = 0.2526-0.4375 0.1153 (  3718 PWs)   bands (ev):

    -7.0814  -6.7831  -4.6125  -4.5895  -4.4763  -4.4220  -4.4176  -4.3123
    -4.2863  -4.2409  -3.4738  -2.8107   2.1613   3.3851   5.0632   5.7845
     7.1594   7.3561  15.3032  16.0771

          k = 0.2526-0.4375 0.1921 (  3724 PWs)   bands (ev):

    -7.0149  -6.8155  -4.6037  -4.5775  -4.5284  -4.4436  -4.3919  -4.2972
    -4.2833  -4.2566  -3.4032  -2.9545   2.0342   2.9222   5.8217   6.0323
     7.0768   7.3318  14.8822  15.9142

          k = 0.2526-0.4375 0.2690 (  3732 PWs)   bands (ev):

    -6.9364  -6.8667  -4.6027  -4.5753  -4.5321  -4.4842  -4.3481  -4.3102
    -4.2783  -4.2698  -3.2899  -3.1323   2.1484   2.4756   6.3607   6.5863
     6.7262   7.1484  14.9665  15.4458

     highest occupied, lowest unoccupied level (ev):     8.7784   13.1379

!    total energy              =    -543.06683921 Ry
     Harris-Foulkes estimate   =    -543.06683970 Ry
     estimated scf accuracy    <       0.00000070 Ry

     convergence has been achieved in   1 iterations

     Using ACE for calculation of exact exchange

!!   total energy              =    -543.06683937 Ry
     Harris-Foulkes estimate   =    -543.06683986 Ry
     est. exchange err (dexx)  =       0.00000015 Ry
     - averaged Fock potential =      18.16650265 Ry
     + Fock energy (ACE)       =      -9.08305951 Ry

     EXX self-consistency reached

     Writing output data file qa.save/

     init_run     :     13.60s CPU     13.96s WALL (       1 calls)
     electrons    :   1632.47s CPU   1655.90s WALL (       5 calls)

     Called by init_run:
     wfcinit      :      9.79s CPU      9.89s WALL (       1 calls)
     potinit      :      1.10s CPU      1.12s WALL (       1 calls)
     hinit0       :      2.09s CPU      2.15s WALL (       1 calls)

     Called by electrons:
     c_bands      :   1321.13s CPU   1324.70s WALL (      56 calls)
     sum_band     :    218.92s CPU    229.00s WALL (      56 calls)
     v_of_rho     :     21.33s CPU     21.60s WALL (      58 calls)
     newd         :     29.86s CPU     39.44s WALL (      57 calls)
     PAW_pot      :     41.62s CPU     41.66s WALL (      58 calls)
     mix_rho      :      1.94s CPU      1.96s WALL (      56 calls)

     Called by c_bands:
     init_us_2    :     40.44s CPU     40.73s WALL (   17440 calls)
     cegterg      :   1258.91s CPU   1262.27s WALL (    4480 calls)

     Called by sum_band:
     sum_band:bec :      0.20s CPU      0.20s WALL (    4480 calls)
     addusdens    :     40.34s CPU     49.95s WALL (      56 calls)

     Called by *egterg:
     h_psi        :    872.37s CPU    874.87s WALL (   15988 calls)
     s_psi        :    103.00s CPU    103.27s WALL (   15988 calls)
     g_psi        :     14.33s CPU     14.37s WALL (   11428 calls)
     cdiaghg      :     17.39s CPU     17.47s WALL (   15588 calls)

     Called by h_psi:
     h_psi:pot    :    840.09s CPU    842.47s WALL (   15988 calls)
     h_psi:calbec :    106.50s CPU    106.69s WALL (   15988 calls)
     vloc_psi     :    631.46s CPU    633.52s WALL (   15988 calls)
     add_vuspsi   :    102.00s CPU    102.18s WALL (   15988 calls)

     General routines
     calbec       :    169.39s CPU    169.78s WALL (   29428 calls)
     fft          :      6.92s CPU      6.98s WALL (     740 calls)
     ffts         :      0.22s CPU      0.22s WALL (     114 calls)
     fftw         :    649.88s CPU    651.87s WALL (  575546 calls)
     fftc         :    562.09s CPU    563.87s WALL (  320000 calls)
     fftcw        :     22.95s CPU     23.18s WALL (   24000 calls)
     interpolate  :      0.63s CPU      0.63s WALL (      58 calls)

     Parallel routines

     EXX routines
     exx_grid     :      0.03s CPU      0.03s WALL (       1 calls)
     exxinit      :     40.62s CPU     41.51s WALL (       5 calls)
     vexx         :  17608.88s CPU  17645.17s WALL (     400 calls)
     matcalc      :     20.10s CPU     20.16s WALL (    8560 calls)
     aceupdate    :      0.65s CPU      0.68s WALL (     400 calls)
     vexxace      :     36.18s CPU     36.30s WALL (    7440 calls)
     aceinit      :  17610.73s CPU  17647.06s WALL (     400 calls)

     EXX+US  routines
     becxx        :      0.00s CPU      0.00s WALL (       5 calls)
     addusxx      :   8215.27s CPU   8226.01s WALL (  160000 calls)
     newdxx       :   8417.96s CPU   8428.66s WALL (  160000 calls)
     qvan_init    :     24.39s CPU     35.74s WALL (     400 calls)
     nlxx_pot     :     21.67s CPU     21.82s WALL (    8000 calls)

     EXX+PAW routines
     PAW_newdxx   :    197.90s CPU    198.35s WALL (  160000 calls)

     PWSCF        :      5h21m CPU      5h22m WALL


   This run was terminated on:  21:32:59   3May2022            

=------------------------------------------------------------------------------=
   JOB DONE.
=------------------------------------------------------------------------------=
