
     Program PWSCF v.6.4.1 starts on  4May2022 at 16: 5:31 

     This program is part of the open-source Quantum ESPRESSO suite
     for quantum simulation of materials; please cite
         "P. Giannozzi et al., J. Phys.:Condens. Matter 21 395502 (2009);
         "P. Giannozzi et al., J. Phys.:Condens. Matter 29 465901 (2017);
          URL http://www.quantum-espresso.org", 
     in publications or presentations arising from this work. More details at
     http://www.quantum-espresso.org/quote

     Parallel version (MPI), running on     1 processors

     MPI processes distributed on     1 nodes
     Waiting for input...
     Reading input from standard input

     Current dimensions of program PWSCF are:
     Max number of different atomic species (ntypx) = 10
     Max number of k-points (npk) =  40000
     Max angular momentum in pseudopotentials (lmaxx) =  3

     IMPORTANT: XC functional enforced from input :
     Exchange-correlation      = HSE ( 1  4 12  4 0 0)
     EXX-fraction              =        0.25
     Any further DFT definition will be discarded
     Please, verify this is what you really want

               file Ga.pbe-dn-kjpaw_psl.1.0.0.UPF: wavefunction(s)  4S renormalized
               file N.pbe-n-kjpaw_psl.1.0.0.UPF: wavefunction(s)  2S renormalized
     Message from routine setup :
     BEWARE: nonlinear core correction is not consistent with hybrid XC

     Subspace diagonalization in iterative solution of the eigenvalue problem:
     a serial algorithm will be used

     Message from routine setup:
     DEPRECATED: symmetry with ibrav=0, use correct ibrav instead
     EXX: setup a grid of 448 q-points centered on each k-point
     (set verbosity='high' to see the list)

     G-vector sticks info
     --------------------
     sticks:   dense  smooth     PW     G-vecs:    dense   smooth      PW
     Sum        2407     805    253               155203    29851    5119



     bravais-lattice index     =            0
     lattice parameter (alat)  =       6.0282  a.u.
     unit-cell volume          =     308.5974 (a.u.)^3
     number of atoms/cell      =            4
     number of atomic types    =            2
     number of electrons       =        36.00
     number of Kohn-Sham states=           20
     kinetic-energy cutoff     =      80.0000  Ry
     charge density cutoff     =     960.0000  Ry
     cutoff for Fock operator  =     320.0000  Ry
     convergence threshold     =      1.0E-06
     mixing beta               =       0.7000
     number of iterations used =            8  plain     mixing
     Exchange-correlation      = HSE ( 1  4 12  4 0 0)
     EXX-fraction              =        0.25

     celldm(1)=   6.028226  celldm(2)=   0.000000  celldm(3)=   0.000000
     celldm(4)=   0.000000  celldm(5)=   0.000000  celldm(6)=   0.000000

     crystal axes: (cart. coord. in units of alat)
               a(1) = (   0.866025  -0.500000   0.000000 )  
               a(2) = (   0.000000   1.000000   0.000000 )  
               a(3) = (   0.000000   0.000000   1.626646 )  

     reciprocal axes: (cart. coord. in units 2 pi/alat)
               b(1) = (  1.154701  0.000000  0.000000 )  
               b(2) = (  0.577350  1.000000 -0.000000 )  
               b(3) = ( -0.000000  0.000000  0.614762 )  


     PseudoPot. # 1 for Ga read from file:
     ./Ga.pbe-dn-kjpaw_psl.1.0.0.UPF
     MD5 check sum: 50ce49cbf7e0a40ad8623bf41840a268
     Pseudo is Projector augmented-wave + core cor, Zval = 13.0
     Generated using "atomic" code by A. Dal Corso v.6.3
     Shape of augmentation charge: PSQ
     Using radial grid of 1205 points,  6 beta functions with: 
                l(1) =   0
                l(2) =   0
                l(3) =   1
                l(4) =   1
                l(5) =   2
                l(6) =   2
     Q(r) pseudized with 0 coefficients 


     PseudoPot. # 2 for N  read from file:
     ./N.pbe-n-kjpaw_psl.1.0.0.UPF
     MD5 check sum: 14c48229446f9f2d411169a3abcbc3fa
     Pseudo is Projector augmented-wave + core cor, Zval =  5.0
     Generated using "atomic" code by A. Dal Corso v.6.3
     Shape of augmentation charge: PSQ
     Using radial grid of 1085 points,  4 beta functions with: 
                l(1) =   0
                l(2) =   0
                l(3) =   1
                l(4) =   1
     Q(r) pseudized with 0 coefficients 


     atomic species   valence    mass     pseudopotential
        Ga            13.00    69.72300     Ga( 1.00)
        N              5.00    14.00650     N ( 1.00)

     12 Sym. Ops. (no inversion) found ( 6 have fractional translation)



   Cartesian axes

     site n.     atom                  positions (alat units)
         1           Ga  tau(   1) = (   0.5773503  -0.0000000   0.0000000  )
         2           Ga  tau(   2) = (   0.2886751   0.5000000   0.8133229  )
         3           N   tau(   3) = (   0.5773503  -0.0000000   0.6099922  )
         4           N   tau(   4) = (   0.2886751   0.5000000   1.4233150  )

     number of k points=    80
                       cart. coord. in units 2pi/alat
        k(    1) = (   0.1082532   0.0625000   0.0384226), wk =   0.0156250
        k(    2) = (   0.1082532   0.0625000   0.1152679), wk =   0.0156250
        k(    3) = (   0.1082532   0.0625000   0.1921131), wk =   0.0156250
        k(    4) = (   0.1082532   0.0625000   0.2689584), wk =   0.0156250
        k(    5) = (   0.1804220   0.1875000   0.0384226), wk =   0.0312500
        k(    6) = (   0.1804220   0.1875000   0.1152679), wk =   0.0312500
        k(    7) = (   0.1804220   0.1875000   0.1921131), wk =   0.0312500
        k(    8) = (   0.1804220   0.1875000   0.2689584), wk =   0.0312500
        k(    9) = (   0.2525907   0.3125000   0.0384226), wk =   0.0312500
        k(   10) = (   0.2525907   0.3125000   0.1152679), wk =   0.0312500
        k(   11) = (   0.2525907   0.3125000   0.1921131), wk =   0.0312500
        k(   12) = (   0.2525907   0.3125000   0.2689584), wk =   0.0312500
        k(   13) = (   0.3247595   0.4375000   0.0384226), wk =   0.0312500
        k(   14) = (   0.3247595   0.4375000   0.1152679), wk =   0.0312500
        k(   15) = (   0.3247595   0.4375000   0.1921131), wk =   0.0312500
        k(   16) = (   0.3247595   0.4375000   0.2689584), wk =   0.0312500
        k(   17) = (  -0.1804220  -0.4375000   0.0384226), wk =   0.0312500
        k(   18) = (  -0.1804220  -0.4375000   0.1152679), wk =   0.0312500
        k(   19) = (  -0.1804220  -0.4375000   0.1921131), wk =   0.0312500
        k(   20) = (  -0.1804220  -0.4375000   0.2689584), wk =   0.0312500
        k(   21) = (  -0.1082532  -0.3125000   0.0384226), wk =   0.0312500
        k(   22) = (  -0.1082532  -0.3125000   0.1152679), wk =   0.0312500
        k(   23) = (  -0.1082532  -0.3125000   0.1921131), wk =   0.0312500
        k(   24) = (  -0.1082532  -0.3125000   0.2689584), wk =   0.0312500
        k(   25) = (  -0.0360844  -0.1875000   0.0384226), wk =   0.0312500
        k(   26) = (  -0.0360844  -0.1875000   0.1152679), wk =   0.0312500
        k(   27) = (  -0.0360844  -0.1875000   0.1921131), wk =   0.0312500
        k(   28) = (  -0.0360844  -0.1875000   0.2689584), wk =   0.0312500
        k(   29) = (   0.0360844  -0.0625000   0.0384226), wk =   0.0156250
        k(   30) = (   0.0360844  -0.0625000   0.1152679), wk =   0.0156250
        k(   31) = (   0.0360844  -0.0625000   0.1921131), wk =   0.0156250
        k(   32) = (   0.0360844  -0.0625000   0.2689584), wk =   0.0156250
        k(   33) = (   0.3247595   0.1875000   0.0384226), wk =   0.0156250
        k(   34) = (   0.3247595   0.1875000   0.1152679), wk =   0.0156250
        k(   35) = (   0.3247595   0.1875000   0.1921131), wk =   0.0156250
        k(   36) = (   0.3247595   0.1875000   0.2689584), wk =   0.0156250
        k(   37) = (   0.3969283   0.3125000   0.0384226), wk =   0.0312500
        k(   38) = (   0.3969283   0.3125000   0.1152679), wk =   0.0312500
        k(   39) = (   0.3969283   0.3125000   0.1921131), wk =   0.0312500
        k(   40) = (   0.3969283   0.3125000   0.2689584), wk =   0.0312500
        k(   41) = (   0.4690971   0.4375000   0.0384226), wk =   0.0312500
        k(   42) = (   0.4690971   0.4375000   0.1152679), wk =   0.0312500
        k(   43) = (   0.4690971   0.4375000   0.1921131), wk =   0.0312500
        k(   44) = (   0.4690971   0.4375000   0.2689584), wk =   0.0312500
        k(   45) = (  -0.0360844  -0.4375000   0.0384226), wk =   0.0312500
        k(   46) = (  -0.0360844  -0.4375000   0.1152679), wk =   0.0312500
        k(   47) = (  -0.0360844  -0.4375000   0.1921131), wk =   0.0312500
        k(   48) = (  -0.0360844  -0.4375000   0.2689584), wk =   0.0312500
        k(   49) = (   0.0360844  -0.3125000   0.0384226), wk =   0.0312500
        k(   50) = (   0.0360844  -0.3125000   0.1152679), wk =   0.0312500
        k(   51) = (   0.0360844  -0.3125000   0.1921131), wk =   0.0312500
        k(   52) = (   0.0360844  -0.3125000   0.2689584), wk =   0.0312500
        k(   53) = (   0.1082532  -0.1875000   0.0384226), wk =   0.0156250
        k(   54) = (   0.1082532  -0.1875000   0.1152679), wk =   0.0156250
        k(   55) = (   0.1082532  -0.1875000   0.1921131), wk =   0.0156250
        k(   56) = (   0.1082532  -0.1875000   0.2689584), wk =   0.0156250
        k(   57) = (   0.5412659   0.3125000   0.0384226), wk =   0.0156250
        k(   58) = (   0.5412659   0.3125000   0.1152679), wk =   0.0156250
        k(   59) = (   0.5412659   0.3125000   0.1921131), wk =   0.0156250
        k(   60) = (   0.5412659   0.3125000   0.2689584), wk =   0.0156250
        k(   61) = (   0.6134347   0.4375000   0.0384226), wk =   0.0312500
        k(   62) = (   0.6134347   0.4375000   0.1152679), wk =   0.0312500
        k(   63) = (   0.6134347   0.4375000   0.1921131), wk =   0.0312500
        k(   64) = (   0.6134347   0.4375000   0.2689584), wk =   0.0312500
        k(   65) = (   0.1082532  -0.4375000   0.0384226), wk =   0.0312500
        k(   66) = (   0.1082532  -0.4375000   0.1152679), wk =   0.0312500
        k(   67) = (   0.1082532  -0.4375000   0.1921131), wk =   0.0312500
        k(   68) = (   0.1082532  -0.4375000   0.2689584), wk =   0.0312500
        k(   69) = (   0.1804220  -0.3125000   0.0384226), wk =   0.0156250
        k(   70) = (   0.1804220  -0.3125000   0.1152679), wk =   0.0156250
        k(   71) = (   0.1804220  -0.3125000   0.1921131), wk =   0.0156250
        k(   72) = (   0.1804220  -0.3125000   0.2689584), wk =   0.0156250
        k(   73) = (   0.7577722   0.4375000   0.0384226), wk =   0.0156250
        k(   74) = (   0.7577722   0.4375000   0.1152679), wk =   0.0156250
        k(   75) = (   0.7577722   0.4375000   0.1921131), wk =   0.0156250
        k(   76) = (   0.7577722   0.4375000   0.2689584), wk =   0.0156250
        k(   77) = (   0.2525907  -0.4375000   0.0384226), wk =   0.0156250
        k(   78) = (   0.2525907  -0.4375000   0.1152679), wk =   0.0156250
        k(   79) = (   0.2525907  -0.4375000   0.1921131), wk =   0.0156250
        k(   80) = (   0.2525907  -0.4375000   0.2689584), wk =   0.0156250

     Dense  grid:   155203 G-vectors     FFT dimensions: (  60,  60, 100)

     Smooth grid:    29851 G-vectors     FFT dimensions: (  36,  36,  60)

     Estimated max dynamical RAM per process >       8.68 GB

     Initial potential from superposition of free atoms

     starting charge   35.99408, renormalised to   36.00000
     Starting wfcs are   26 randomized atomic wfcs

     total cpu time spent up to now is       14.1 secs

     Self-consistent Calculation

     iteration #  1     ecut=    80.00 Ry     beta= 0.70
     Davidson diagonalization with overlap
     ethr =  1.00E-02,  avg # of iterations =  2.6

     total cpu time spent up to now is       35.5 secs

     total energy              =    -611.65064197 Ry
     Harris-Foulkes estimate   =    -612.50087859 Ry
     estimated scf accuracy    <       1.13987981 Ry

     iteration #  2     ecut=    80.00 Ry     beta= 0.70
     Davidson diagonalization with overlap
     ethr =  3.17E-03,  avg # of iterations =  5.2

     total cpu time spent up to now is       68.6 secs

     total energy              =    -612.18620622 Ry
     Harris-Foulkes estimate   =    -612.80373883 Ry
     estimated scf accuracy    <       1.44398861 Ry

     iteration #  3     ecut=    80.00 Ry     beta= 0.70
     Davidson diagonalization with overlap
     ethr =  3.17E-03,  avg # of iterations =  2.0

     total cpu time spent up to now is       91.5 secs

     total energy              =    -612.41394092 Ry
     Harris-Foulkes estimate   =    -612.41414559 Ry
     estimated scf accuracy    <       0.05430188 Ry

     iteration #  4     ecut=    80.00 Ry     beta= 0.70
     Davidson diagonalization with overlap
     ethr =  1.51E-04,  avg # of iterations =  4.2

     total cpu time spent up to now is      120.4 secs

     total energy              =    -612.42889416 Ry
     Harris-Foulkes estimate   =    -612.42882371 Ry
     estimated scf accuracy    <       0.02362528 Ry

     iteration #  5     ecut=    80.00 Ry     beta= 0.70
     Davidson diagonalization with overlap
     ethr =  6.56E-05,  avg # of iterations =  1.9

     total cpu time spent up to now is      141.2 secs

     total energy              =    -612.42967242 Ry
     Harris-Foulkes estimate   =    -612.43073711 Ry
     estimated scf accuracy    <       0.00513025 Ry

     iteration #  6     ecut=    80.00 Ry     beta= 0.70
     Davidson diagonalization with overlap
     ethr =  1.43E-05,  avg # of iterations =  3.2

     total cpu time spent up to now is      163.1 secs

     total energy              =    -612.42990746 Ry
     Harris-Foulkes estimate   =    -612.43009131 Ry
     estimated scf accuracy    <       0.00399729 Ry

     iteration #  7     ecut=    80.00 Ry     beta= 0.70
     Davidson diagonalization with overlap
     ethr =  1.11E-05,  avg # of iterations =  1.1

     total cpu time spent up to now is      183.4 secs

     total energy              =    -612.43008099 Ry
     Harris-Foulkes estimate   =    -612.43002265 Ry
     estimated scf accuracy    <       0.00387204 Ry

     iteration #  8     ecut=    80.00 Ry     beta= 0.70
     Davidson diagonalization with overlap
     ethr =  1.08E-05,  avg # of iterations =  1.0

     total cpu time spent up to now is      203.4 secs

     total energy              =    -612.43010800 Ry
     Harris-Foulkes estimate   =    -612.43015617 Ry
     estimated scf accuracy    <       0.00406537 Ry

     iteration #  9     ecut=    80.00 Ry     beta= 0.70
     Davidson diagonalization with overlap
     ethr =  1.08E-05,  avg # of iterations =  1.0

     total cpu time spent up to now is      223.7 secs

     total energy              =    -612.42999324 Ry
     Harris-Foulkes estimate   =    -612.43015755 Ry
     estimated scf accuracy    <       0.00418600 Ry

     iteration # 10     ecut=    80.00 Ry     beta= 0.70
     Davidson diagonalization with overlap
     ethr =  1.08E-05,  avg # of iterations =  1.0

     total cpu time spent up to now is      243.8 secs

     total energy              =    -612.43011613 Ry
     Harris-Foulkes estimate   =    -612.43004516 Ry
     estimated scf accuracy    <       0.00396644 Ry

     iteration # 11     ecut=    80.00 Ry     beta= 0.70
     Davidson diagonalization with overlap
     ethr =  1.08E-05,  avg # of iterations =  1.0

     total cpu time spent up to now is      264.0 secs

     total energy              =    -612.43007294 Ry
     Harris-Foulkes estimate   =    -612.43014481 Ry
     estimated scf accuracy    <       0.00437570 Ry

     iteration # 12     ecut=    80.00 Ry     beta= 0.70
     Davidson diagonalization with overlap
     ethr =  1.08E-05,  avg # of iterations =  1.0

     total cpu time spent up to now is      284.1 secs

     total energy              =    -612.42908276 Ry
     Harris-Foulkes estimate   =    -612.43009723 Ry
     estimated scf accuracy    <       0.00386201 Ry

     iteration # 13     ecut=    80.00 Ry     beta= 0.70
     Davidson diagonalization with overlap
     ethr =  1.07E-05,  avg # of iterations =  2.5

     total cpu time spent up to now is      305.7 secs

     total energy              =    -612.42949169 Ry
     Harris-Foulkes estimate   =    -612.42952873 Ry
     estimated scf accuracy    <       0.00160499 Ry

     iteration # 14     ecut=    80.00 Ry     beta= 0.70
     Davidson diagonalization with overlap
     ethr =  4.46E-06,  avg # of iterations =  3.1

     total cpu time spent up to now is      332.8 secs

     total energy              =    -612.42996480 Ry
     Harris-Foulkes estimate   =    -612.42979599 Ry
     estimated scf accuracy    <       0.00110594 Ry

     iteration # 15     ecut=    80.00 Ry     beta= 0.70
     Davidson diagonalization with overlap
     ethr =  3.07E-06,  avg # of iterations =  2.0

     total cpu time spent up to now is      353.5 secs

     total energy              =    -612.42941427 Ry
     Harris-Foulkes estimate   =    -612.43000251 Ry
     estimated scf accuracy    <       0.00145615 Ry

     iteration # 16     ecut=    80.00 Ry     beta= 0.70
     Davidson diagonalization with overlap
     ethr =  3.07E-06,  avg # of iterations =  4.0

     total cpu time spent up to now is      382.6 secs

     total energy              =    -612.43089311 Ry
     Harris-Foulkes estimate   =    -612.42967593 Ry
     estimated scf accuracy    <       0.00218805 Ry

     iteration # 17     ecut=    80.00 Ry     beta= 0.70
     Davidson diagonalization with overlap
     ethr =  3.07E-06,  avg # of iterations =  4.0

     total cpu time spent up to now is      424.8 secs

     total energy              =    -612.43211573 Ry
     Harris-Foulkes estimate   =    -612.43244023 Ry
     estimated scf accuracy    <       0.01905141 Ry

     iteration # 18     ecut=    80.00 Ry     beta= 0.70
     Davidson diagonalization with overlap
     ethr =  3.07E-06,  avg # of iterations =  1.0

     total cpu time spent up to now is      444.6 secs

     total energy              =    -612.43191353 Ry
     Harris-Foulkes estimate   =    -612.43211768 Ry
     estimated scf accuracy    <       0.01756164 Ry

     iteration # 19     ecut=    80.00 Ry     beta= 0.70
     Davidson diagonalization with overlap
     ethr =  3.07E-06,  avg # of iterations =  1.0

     total cpu time spent up to now is      464.4 secs

     total energy              =    -612.43023607 Ry
     Harris-Foulkes estimate   =    -612.43192577 Ry
     estimated scf accuracy    <       0.01551057 Ry

     iteration # 20     ecut=    80.00 Ry     beta= 0.70
     Davidson diagonalization with overlap
     ethr =  3.07E-06,  avg # of iterations =  1.7

     total cpu time spent up to now is      483.9 secs

     total energy              =    -612.43002983 Ry
     Harris-Foulkes estimate   =    -612.43031614 Ry
     estimated scf accuracy    <       0.00862002 Ry

     iteration # 21     ecut=    80.00 Ry     beta= 0.70
     Davidson diagonalization with overlap
     ethr =  3.07E-06,  avg # of iterations =  3.0

     total cpu time spent up to now is      510.2 secs

     total energy              =    -612.43014194 Ry
     Harris-Foulkes estimate   =    -612.43022746 Ry
     estimated scf accuracy    <       0.00470234 Ry

     iteration # 22     ecut=    80.00 Ry     beta= 0.70
     Davidson diagonalization with overlap
     ethr =  3.07E-06,  avg # of iterations =  1.0

     total cpu time spent up to now is      530.1 secs

     total energy              =    -612.42953378 Ry
     Harris-Foulkes estimate   =    -612.43015326 Ry
     estimated scf accuracy    <       0.00435454 Ry

     iteration # 23     ecut=    80.00 Ry     beta= 0.70
     Davidson diagonalization with overlap
     ethr =  3.07E-06,  avg # of iterations =  3.0

     total cpu time spent up to now is      552.0 secs

     total energy              =    -612.42959401 Ry
     Harris-Foulkes estimate   =    -612.42962892 Ry
     estimated scf accuracy    <       0.00171590 Ry

     iteration # 24     ecut=    80.00 Ry     beta= 0.70
     Davidson diagonalization with overlap
     ethr =  3.07E-06,  avg # of iterations =  1.0

     total cpu time spent up to now is      571.1 secs

     total energy              =    -612.42954905 Ry
     Harris-Foulkes estimate   =    -612.42961548 Ry
     estimated scf accuracy    <       0.00152116 Ry

     iteration # 25     ecut=    80.00 Ry     beta= 0.70
     Davidson diagonalization with overlap
     ethr =  3.07E-06,  avg # of iterations =  1.0

     total cpu time spent up to now is      591.1 secs

     total energy              =    -612.42953022 Ry
     Harris-Foulkes estimate   =    -612.42956878 Ry
     estimated scf accuracy    <       0.00116416 Ry

     iteration # 26     ecut=    80.00 Ry     beta= 0.70
     Davidson diagonalization with overlap
     ethr =  3.07E-06,  avg # of iterations =  1.0

     total cpu time spent up to now is      611.1 secs

     total energy              =    -612.42952283 Ry
     Harris-Foulkes estimate   =    -612.42955244 Ry
     estimated scf accuracy    <       0.00085978 Ry

     iteration # 27     ecut=    80.00 Ry     beta= 0.70
     Davidson diagonalization with overlap
     ethr =  2.39E-06,  avg # of iterations =  1.0

     total cpu time spent up to now is      630.2 secs

     total energy              =    -612.42949727 Ry
     Harris-Foulkes estimate   =    -612.42953870 Ry
     estimated scf accuracy    <       0.00068606 Ry

     iteration # 28     ecut=    80.00 Ry     beta= 0.70
     Davidson diagonalization with overlap
     ethr =  1.91E-06,  avg # of iterations =  1.0

     total cpu time spent up to now is      650.2 secs

     total energy              =    -612.42947717 Ry
     Harris-Foulkes estimate   =    -612.42951526 Ry
     estimated scf accuracy    <       0.00039186 Ry

     iteration # 29     ecut=    80.00 Ry     beta= 0.70
     Davidson diagonalization with overlap
     ethr =  1.09E-06,  avg # of iterations =  1.6

     total cpu time spent up to now is      670.5 secs

     total energy              =    -612.42944441 Ry
     Harris-Foulkes estimate   =    -612.42949401 Ry
     estimated scf accuracy    <       0.00021630 Ry

     iteration # 30     ecut=    80.00 Ry     beta= 0.70
     Davidson diagonalization with overlap
     ethr =  6.01E-07,  avg # of iterations =  4.0

     total cpu time spent up to now is      698.1 secs

     total energy              =    -612.42954212 Ry
     Harris-Foulkes estimate   =    -612.42953335 Ry
     estimated scf accuracy    <       0.00003446 Ry

     iteration # 31     ecut=    80.00 Ry     beta= 0.70
     Davidson diagonalization with overlap
     ethr =  9.57E-08,  avg # of iterations =  3.9

     total cpu time spent up to now is      721.3 secs

     total energy              =    -612.42954199 Ry
     Harris-Foulkes estimate   =    -612.42955123 Ry
     estimated scf accuracy    <       0.00009588 Ry

     iteration # 32     ecut=    80.00 Ry     beta= 0.70
     Davidson diagonalization with overlap
     ethr =  9.57E-08,  avg # of iterations =  1.0

     total cpu time spent up to now is      741.3 secs

     total energy              =    -612.42953170 Ry
     Harris-Foulkes estimate   =    -612.42954226 Ry
     estimated scf accuracy    <       0.00006717 Ry

     iteration # 33     ecut=    80.00 Ry     beta= 0.70
     Davidson diagonalization with overlap
     ethr =  9.57E-08,  avg # of iterations =  1.0

     total cpu time spent up to now is      761.2 secs

     total energy              =    -612.42952975 Ry
     Harris-Foulkes estimate   =    -612.42953228 Ry
     estimated scf accuracy    <       0.00003450 Ry

     iteration # 34     ecut=    80.00 Ry     beta= 0.70
     Davidson diagonalization with overlap
     ethr =  9.57E-08,  avg # of iterations =  1.0

     total cpu time spent up to now is      781.0 secs

     total energy              =    -612.42953109 Ry
     Harris-Foulkes estimate   =    -612.42953048 Ry
     estimated scf accuracy    <       0.00001999 Ry

     iteration # 35     ecut=    80.00 Ry     beta= 0.70
     Davidson diagonalization with overlap
     ethr =  5.55E-08,  avg # of iterations =  1.0

     total cpu time spent up to now is      800.1 secs

     total energy              =    -612.42956790 Ry
     Harris-Foulkes estimate   =    -612.42953140 Ry
     estimated scf accuracy    <       0.00002217 Ry

     iteration # 36     ecut=    80.00 Ry     beta= 0.70
     Davidson diagonalization with overlap
     ethr =  5.55E-08,  avg # of iterations =  4.0

     total cpu time spent up to now is      836.8 secs

     total energy              =    -612.42949777 Ry
     Harris-Foulkes estimate   =    -612.42958058 Ry
     estimated scf accuracy    <       0.00031683 Ry

     iteration # 37     ecut=    80.00 Ry     beta= 0.70
     Davidson diagonalization with overlap
     ethr =  5.55E-08,  avg # of iterations =  4.0

     total cpu time spent up to now is      878.5 secs

     End of self-consistent calculation

          k = 0.1083 0.0625 0.0384 (  3752 PWs)   bands (ev):

    -6.1479  -5.3436  -3.7653  -3.7445  -3.7237  -3.6883  -3.6755  -3.5206
    -3.5136  -3.4345  -3.4130  -2.1221   2.8651   7.8942   8.3363   8.7805
     9.5070   9.5728  12.5544  14.6675

          k = 0.1083 0.0625 0.1153 (  3745 PWs)   bands (ev):

    -6.0634  -5.3729  -3.7564  -3.7420  -3.7082  -3.6955  -3.6809  -3.5052
    -3.5039  -3.4422  -3.4184  -2.4127   3.3888   7.9944   8.1310   8.5462
     9.3448   9.4781  13.0066  14.7144

          k = 0.1083 0.0625 0.1921 (  3733 PWs)   bands (ev):

    -5.9122  -5.4418  -3.7456  -3.7361  -3.7076  -3.6994  -3.6473  -3.4877
    -3.4728  -3.4583  -3.4287  -2.8169   4.2528   7.3351   8.1861   8.6474
     9.0876   9.3066  13.6469  14.7497

          k = 0.1083 0.0625 0.2690 (  3732 PWs)   bands (ev):

    -5.7301  -5.5624  -3.7346  -3.7263  -3.7213  -3.7128  -3.5551  -3.4920
    -3.4645  -3.4471  -3.3913  -3.1741   5.2779   6.3385   8.4497   8.7322
     8.8904   9.0908  14.2486  14.6363

          k = 0.1804 0.1875 0.0384 (  3743 PWs)   bands (ev):

    -5.8421  -5.2789  -3.7268  -3.7120  -3.6541  -3.6265  -3.5535  -3.5326
    -3.5039  -3.4586  -3.4017  -1.8792   3.3558   6.1946   7.0469   7.8645
     9.1065   9.2020  13.8338  15.7798

          k = 0.1804 0.1875 0.1153 (  3742 PWs)   bands (ev):

    -5.7753  -5.2953  -3.7258  -3.7056  -3.6640  -3.6327  -3.5621  -3.5140
    -3.4914  -3.4426  -3.3966  -2.1357   3.7472   6.3435   6.8292   7.9001
     8.9872   9.0947  13.9688  15.8295

          k = 0.1804 0.1875 0.1921 (  3737 PWs)   bands (ev):

    -5.6595  -5.3363  -3.7195  -3.6937  -3.6767  -3.6442  -3.5628  -3.5201
    -3.4761  -3.4332  -3.3211  -2.5118   4.3653   6.2123   6.8852   8.0405
     8.6539   8.8689  14.2994  15.7711

          k = 0.1804 0.1875 0.2690 (  3734 PWs)   bands (ev):

    -5.5271  -5.4130  -3.7067  -3.6916  -3.6771  -3.6598  -3.5538  -3.5369
    -3.4608  -3.4450  -3.1467  -2.8727   5.0380   5.6714   7.4182   8.0384
     8.3275   8.5854  14.8104  15.3780

          k = 0.2526 0.3125 0.0384 (  3722 PWs)   bands (ev):

    -5.5234  -5.2283  -3.7082  -3.6943  -3.6077  -3.5551  -3.5486  -3.5108
    -3.4625  -3.4041  -3.0048  -1.6107   3.7438   4.8716   5.6613   7.1334
     8.3567   8.7864  14.7401  15.6264

          k = 0.2526 0.3125 0.1153 (  3737 PWs)   bands (ev):

    -5.4825  -5.2328  -3.7112  -3.6845  -3.6263  -3.5595  -3.5521  -3.5019
    -3.4573  -3.4117  -2.9479  -1.7855   3.6900   5.0098   5.7621   7.2336
     8.4531   8.6558  14.4134  15.6207

          k = 0.2526 0.3125 0.1921 (  3731 PWs)   bands (ev):

    -5.4143  -5.2480  -3.7141  -3.6667  -3.6518  -3.5768  -3.5421  -3.5003
    -3.4504  -3.4222  -2.8267  -2.0675   3.7556   4.7053   6.4233   7.4436
     8.2789   8.5147  14.2466  15.4375

          k = 0.2526 0.3125 0.2690 (  3736 PWs)   bands (ev):

    -5.3410  -5.2828  -3.7073  -3.6877  -3.6312  -3.6018  -3.5265  -3.5103
    -3.4419  -3.4322  -2.6334  -2.3709   3.9716   4.3076   7.2187   7.7293
     7.9012   8.1795  14.4592  14.9547

          k = 0.3248 0.4375 0.0384 (  3710 PWs)   bands (ev):

    -5.3790  -5.2117  -3.7156  -3.6890  -3.5872  -3.5625  -3.5111  -3.4940
    -3.4299  -3.3955  -2.3117  -1.6918   3.3006   4.4506   5.5405   6.8173
     7.5642   8.5610  15.0085  15.1815

          k = 0.3248 0.4375 0.1153 (  3717 PWs)   bands (ev):

    -5.3525  -5.2107  -3.7181  -3.6789  -3.6108  -3.5659  -3.5217  -3.4696
    -3.4289  -3.4031  -2.2791  -1.7494   3.1389   4.1339   6.0133   6.9553
     7.8590   8.4032  14.4259  15.0986

          k = 0.3248 0.4375 0.1921 (  3731 PWs)   bands (ev):

    -5.3092  -5.2145  -3.7229  -3.6603  -3.6515  -3.5441  -3.5348  -3.4614
    -3.4271  -3.4126  -2.2121  -1.8546   3.0339   3.7075   6.6688   7.2482
     7.9853   8.2524  14.0332  14.9796

          k = 0.3248 0.4375 0.2690 (  3736 PWs)   bands (ev):

    -5.2642  -5.2310  -3.7187  -3.6978  -3.6155  -3.5769  -3.5011  -3.4738
    -3.4241  -3.4194  -2.1111  -1.9847   3.0956   3.3335   7.2270   7.6486
     7.7248   8.1395  14.1046  14.5522

          k =-0.1804-0.4375 0.0384 (  3709 PWs)   bands (ev):

    -5.4263  -5.2164  -3.7119  -3.6902  -3.5949  -3.5578  -3.5237  -3.5029
    -3.4419  -3.3988  -2.6415  -1.5926   3.4972   4.6944   5.3950   6.9132
     7.9089   8.6393  14.9126  15.3925

          k =-0.1804-0.4375 0.1153 (  3725 PWs)   bands (ev):

    -5.3949  -5.2174  -3.7146  -3.6805  -3.6155  -3.5623  -3.5336  -3.4826
    -3.4393  -3.4064  -2.5920  -1.7057   3.3508   4.4820   5.8372   7.0334
     8.1243   8.4898  14.4286  15.2994

          k =-0.1804-0.4375 0.1921 (  3733 PWs)   bands (ev):

    -5.3432  -5.2250  -3.7191  -3.6626  -3.6498  -3.5551  -3.5381  -3.4765
    -3.4356  -3.4163  -2.4891  -1.9001   3.2988   4.0851   6.5596   7.2803
     8.1023   8.3651  14.1122  15.1466

          k =-0.1804-0.4375 0.2690 (  3731 PWs)   bands (ev):

    -5.2889  -5.2475  -3.7142  -3.6937  -3.6200  -3.5846  -3.5110  -3.4877
    -3.4308  -3.4242  -2.3304  -2.1244   3.4198   3.6989   7.2492   7.6489
     7.7720   8.1471  14.2325  14.6969

          k =-0.1083-0.3125 0.0384 (  3732 PWs)   bands (ev):

    -5.6680  -5.2492  -3.7118  -3.7015  -3.6278  -3.5858  -3.5517  -3.5096
    -3.4850  -3.4128  -3.2930  -1.7278   3.6520   5.3602   6.3108   7.4601
     8.7727   8.9834  14.3750  15.8315

          k =-0.1083-0.3125 0.1153 (  3733 PWs)   bands (ev):

    -5.6143  -5.2590  -3.7140  -3.6922  -3.6432  -3.5936  -3.5427  -3.5178
    -3.4769  -3.4184  -3.2388  -1.9512   3.8588   5.5818   6.1494   7.5357
     8.7426   8.8747  14.2861  15.8961

          k =-0.1083-0.3125 0.1921 (  3734 PWs)   bands (ev):

    -5.5232  -5.2856  -3.7128  -3.6758  -3.6616  -3.6084  -3.5404  -3.5257
    -3.4660  -3.4280  -3.1197  -2.2930   4.1873   5.4426   6.4786   7.7141
     8.4797   8.6674  14.3540  15.7421

          k =-0.1083-0.3125 0.2690 (  3740 PWs)   bands (ev):

    -5.4224  -5.3389  -3.7027  -3.6847  -3.6512  -3.6284  -3.5394  -3.5337
    -3.4532  -3.4400  -2.9221  -2.6395   4.5803   5.0149   7.2126   7.8902
     8.0584   8.3295  14.7058  15.2466

          k =-0.0361-0.1875 0.0384 (  3750 PWs)   bands (ev):

    -6.0134  -5.3131  -3.7471  -3.7281  -3.6827  -3.6680  -3.6342  -3.5299
    -3.5125  -3.4527  -3.4096  -2.0188   3.0718   7.1058   7.7593   8.3117
     9.3496   9.4070  13.1954  15.2953

          k =-0.0361-0.1875 0.1153 (  3743 PWs)   bands (ev):

    -5.9359  -5.3364  -3.7424  -3.7242  -3.6840  -3.6701  -3.6306  -3.5072
    -3.5025  -3.4597  -3.4147  -2.2964   3.5517   7.2178   7.5250   8.2673
     9.1831   9.3002  13.5028  15.3358

          k =-0.0361-0.1875 0.1921 (  3739 PWs)   bands (ev):

    -5.7991  -5.3926  -3.7329  -3.7162  -3.6932  -3.6763  -3.6054  -3.4985
    -3.4764  -3.4460  -3.4150  -2.6906   4.3355   6.8955   7.5273   8.3662
     8.8422   9.1033  14.0263  15.3356

          k =-0.0361-0.1875 0.2690 (  3736 PWs)   bands (ev):

    -5.6378  -5.4935  -3.7206  -3.7079  -3.7027  -3.6893  -3.5601  -3.5197
    -3.4639  -3.4470  -3.2985  -3.0504   5.2386   6.1254   7.8918   8.3233
     8.6338   8.8600  14.6230  15.1161

          k = 0.0361-0.0625 0.0384 (  3743 PWs)   bands (ev):

    -6.2212  -5.3617  -3.7746  -3.7548  -3.7477  -3.6959  -3.6923  -3.5153
    -3.5128  -3.4224  -3.4147  -2.1768   2.7578   8.3761   8.5920   9.2127
     9.5929   9.6651  12.0838  14.2364

          k = 0.0361-0.0625 0.1153 (  3746 PWs)   bands (ev):

    -6.1332  -5.3945  -3.7615  -3.7528  -3.7330  -3.7030  -3.6997  -3.5036
    -3.5028  -3.4285  -3.4198  -2.4737   3.3004   8.4409   8.5380   8.6692
     9.4852   9.5787  12.6566  14.2902

          k = 0.0361-0.0625 0.1921 (  3749 PWs)   bands (ev):

    -5.9750  -5.4706  -3.7517  -3.7478  -3.7157  -3.7121  -3.6703  -3.4855
    -3.4818  -3.4414  -3.4303  -2.8837   4.1975   7.5178   8.6216   8.8136
     9.3025   9.4211  13.3645  14.3465

          k = 0.0361-0.0625 0.2690 (  3727 PWs)   bands (ev):

    -5.7822  -5.6021  -3.7420  -3.7388  -3.7295  -3.7262  -3.5466  -3.4664
    -3.4653  -3.4460  -3.4384  -3.2437   5.2722   6.4074   8.8339   9.0061
     9.0729   9.2194  13.9552  14.2825

          k = 0.3248 0.1875 0.0384 (  3730 PWs)   bands (ev):

    -5.5654  -5.2347  -3.7194  -3.6774  -3.6117  -3.5881  -3.5502  -3.5007
    -3.4700  -3.4299  -3.1092  -1.6247   3.8248   5.4813   5.5833   6.9201
     8.4194   8.5810  15.0620  16.4434

          k = 0.3248 0.1875 0.1153 (  3726 PWs)   bands (ev):

    -5.5203  -5.2405  -3.7068  -3.6843  -3.6198  -3.6050  -3.5283  -3.5208
    -3.4561  -3.4398  -3.0523  -1.8219   3.9101   5.4261   5.8969   6.8782
     8.2426   8.6761  14.9566  16.3199

          k = 0.3248 0.1875 0.1921 (  3737 PWs)   bands (ev):

    -5.4449  -5.2585  -3.6883  -3.6850  -3.6353  -3.6177  -3.5394  -3.5254
    -3.4453  -3.4445  -2.9302  -2.1322   4.0954   5.1127   6.5915   6.9688
     7.9437   8.5901  14.9477  16.0499

          k = 0.3248 0.1875 0.2690 (  3725 PWs)   bands (ev):

    -5.3634  -5.2981  -3.6812  -3.6689  -3.6461  -3.6309  -3.5474  -3.5399
    -3.4409  -3.4401  -2.7321  -2.4575   4.3777   4.7333   7.2049   7.3226
     7.6617   8.1611  15.1926  15.6262

          k = 0.3969 0.3125 0.0384 (  3724 PWs)   bands (ev):

    -5.3686  -5.2165  -3.7386  -3.6470  -3.5711  -3.5505  -3.5388  -3.5094
    -3.4512  -3.4227  -2.4464  -1.5180   3.7663   4.6295   5.5880   5.9866
     7.7324   7.8326  15.4599  16.1987

          k = 0.3969 0.3125 0.1153 (  3717 PWs)   bands (ev):

    -5.3426  -5.2141  -3.7217  -3.6599  -3.5976  -3.5542  -3.5328  -3.5002
    -3.4441  -3.4344  -2.3979  -1.6108   3.5966   4.4313   5.7686   6.3502
     7.5604   8.0704  15.2748  16.2582

          k = 0.3969 0.3125 0.1921 (  3727 PWs)   bands (ev):

    -5.3006  -5.2153  -3.6943  -3.6695  -3.6289  -3.5681  -3.5271  -3.4987
    -3.4473  -3.4333  -2.2994  -1.7738   3.4955   4.0969   5.9955   6.9968
     7.2440   8.3153  15.0800  16.0361

          k = 0.3969 0.3125 0.2690 (  3725 PWs)   bands (ev):

    -5.2581  -5.2283  -3.6807  -3.6680  -3.6322  -3.5960  -3.5215  -3.5114
    -3.4404  -3.4333  -2.1521  -1.9677   3.5561   3.7730   6.3310   6.7391
     7.7760   8.2399  15.1426  15.5371

          k = 0.4691 0.4375 0.0384 (  3709 PWs)   bands (ev):

    -5.3264  -5.2168  -3.7437  -3.6439  -3.5596  -3.5509  -3.5267  -3.5030
    -3.4531  -3.4205  -2.1377  -1.6091   3.6182   4.5117   5.4137   6.1629
     7.3853   7.6791  15.2402  16.4816

          k = 0.4691 0.4375 0.1153 (  3719 PWs)   bands (ev):

    -5.3050  -5.2123  -3.7260  -3.6566  -3.5952  -3.5404  -3.5340  -3.4817
    -3.4501  -3.4335  -2.1058  -1.6535   3.4513   4.2153   5.5302   6.6258
     7.3861   7.7994  15.1279  16.5552

          k = 0.4691 0.4375 0.1921 (  3710 PWs)   bands (ev):

    -5.2708  -5.2091  -3.6977  -3.6640  -3.6346  -3.5560  -3.5199  -3.4786
    -3.4490  -3.4407  -2.0424  -1.7363   3.3139   3.8276   5.7786   7.0065
     7.3034   8.1548  14.9822  16.1871

          k = 0.4691 0.4375 0.2690 (  3729 PWs)   bands (ev):

    -5.2373  -5.2157  -3.6830  -3.6669  -3.6346  -3.5911  -3.5048  -3.4912
    -3.4449  -3.4406  -1.9510  -1.8426   3.3239   3.5048   6.1378   6.5678
     7.9095   8.2360  15.0673  15.5288

          k =-0.0361-0.4375 0.0384 (  3727 PWs)   bands (ev):

    -5.4495  -5.2216  -3.7296  -3.6569  -3.5894  -3.5675  -3.5464  -3.5079
    -3.4568  -3.4259  -2.8016  -1.5275   3.8973   4.9727   5.4739   6.3513
     8.0524   8.2023  15.6283  15.9696

          k =-0.0361-0.4375 0.1153 (  3727 PWs)   bands (ev):

    -5.4153  -5.2228  -3.7144  -3.6682  -3.6054  -3.5792  -3.5294  -3.5153
    -3.4460  -3.4372  -2.7446  -1.6765   3.7962   4.8503   5.9429   6.3523
     7.8512   8.3963  15.3392  16.0568

          k =-0.0361-0.4375 0.1921 (  3730 PWs)   bands (ev):

    -5.3590  -5.2312  -3.6891  -3.6770  -3.6268  -3.5916  -3.5371  -3.5141
    -3.4462  -3.4345  -2.6258  -1.9232   3.7949   4.5541   6.4003   6.7730
     7.5217   8.4777  15.1367  15.9251

          k =-0.0361-0.4375 0.2690 (  3730 PWs)   bands (ev):

    -5.3001  -5.2555  -3.6784  -3.6684  -3.6342  -3.6100  -3.5396  -3.5300
    -3.4385  -3.4327  -2.4410  -2.1969   3.9440   4.2170   6.7029   7.0590
     7.6115   8.2089  15.2234  15.5693

          k = 0.0361-0.3125 0.0384 (  3729 PWs)   bands (ev):

    -5.7040  -5.2551  -3.7121  -3.7037  -3.6325  -3.6101  -3.5486  -3.4999
    -3.4826  -3.4405  -3.3265  -1.7560   3.5986   5.7666   6.3050   7.4652
     8.8288   8.8893  14.4164  16.3452

          k = 0.0361-0.3125 0.1153 (  3739 PWs)   bands (ev):

    -5.6473  -5.2661  -3.7065  -3.7022  -3.6424  -3.6205  -3.5385  -3.5155
    -3.4719  -3.4400  -3.2792  -1.9886   3.8727   5.9465   6.2106   7.4438
     8.6744   8.8884  14.4364  16.3574

          k = 0.0361-0.3125 0.1921 (  3735 PWs)   bands (ev):

    -5.5507  -5.2955  -3.7040  -3.6859  -3.6565  -3.6323  -3.5406  -3.5323
    -3.4611  -3.4402  -3.1672  -2.3405   4.2955   5.6893   6.6319   7.5449
     8.4069   8.6662  14.6159  16.1101

          k = 0.0361-0.3125 0.2690 (  3742 PWs)   bands (ev):

    -5.4432  -5.3534  -3.6926  -3.6765  -3.6629  -3.6462  -3.5472  -3.5447
    -3.4514  -3.4440  -2.9742  -2.6922   4.7638   5.2397   7.3171   7.7383
     8.0720   8.2035  15.0261  15.5813

          k = 0.1083-0.1875 0.0384 (  3748 PWs)   bands (ev):

    -5.9525  -5.3003  -3.7412  -3.7199  -3.6733  -3.6379  -3.6201  -3.5357
    -3.5090  -3.4559  -3.4092  -1.9707   3.1701   6.6818   7.6540   8.0635
     9.2634   9.4005  13.4095  15.4256

          k = 0.1083-0.1875 0.1153 (  3732 PWs)   bands (ev):

    -5.8786  -5.3212  -3.7379  -3.7154  -3.6797  -3.6457  -3.6106  -3.5123
    -3.5002  -3.4535  -3.4156  -2.2415   3.6234   6.7986   7.3446   8.1557
     9.1008   9.2871  13.6490  15.4731

          k = 0.1083-0.1875 0.1921 (  3741 PWs)   bands (ev):

    -5.7489  -5.3718  -3.7293  -3.7062  -3.6898  -3.6595  -3.5896  -3.5051
    -3.4844  -3.4280  -3.3994  -2.6303   4.3567   6.6375   7.2438   8.3295
     8.7208   9.0836  14.0991  15.4632

          k = 0.1083-0.1875 0.2690 (  3737 PWs)   bands (ev):

    -5.5976  -5.4640  -3.7165  -3.7025  -3.6927  -3.6763  -3.5584  -3.5268
    -3.4649  -3.4451  -3.2510  -2.9916   5.1843   5.9754   7.6509   8.1892
     8.5640   8.8284  14.6657  15.1905

          k = 0.5413 0.3125 0.0384 (  3722 PWs)   bands (ev):

    -5.2683  -5.2358  -3.7618  -3.5811  -3.5589  -3.5430  -3.5267  -3.5171
    -3.4773  -3.4363  -1.8651  -1.6438   4.2034   4.2932   4.6862   6.5229
     7.0168   7.0367  14.9365  17.2694

          k = 0.5413 0.3125 0.1153 (  3711 PWs)   bands (ev):

    -5.2536  -5.2261  -3.7417  -3.6084  -3.5908  -3.5461  -3.5041  -3.4999
    -3.4742  -3.4553  -1.8477  -1.6579   3.9391   4.1116   4.7271   6.7655
     7.0074   7.4292  15.3084  16.9249

          k = 0.5413 0.3125 0.1921 (  3718 PWs)   bands (ev):

    -5.2314  -5.2132  -3.7041  -3.6337  -3.6216  -3.5615  -3.4954  -3.4899
    -3.4742  -3.4664  -1.8149  -1.6861   3.6722   3.8121   4.9791   6.3379
     7.6212   7.9285  15.8817  16.4071

          k = 0.5413 0.3125 0.2690 (  3710 PWs)   bands (ev):

    -5.2129  -5.2065  -3.6560  -3.6470  -3.6402  -3.6006  -3.4968  -3.4964
    -3.4664  -3.4623  -1.7718  -1.7261   3.5448   3.5967   5.3693   5.8426
     8.0967   8.2125  16.0658  16.0935

          k = 0.6134 0.4375 0.0384 (  3713 PWs)   bands (ev):

    -5.3101  -5.2214  -3.7536  -3.6112  -3.5593  -3.5472  -3.5340  -3.5130
    -3.4616  -3.4314  -2.1345  -1.5429   3.9320   4.4065   5.2054   6.1131
     7.3052   7.4212  15.1452  16.8054

          k = 0.6134 0.4375 0.1153 (  3716 PWs)   bands (ev):

    -5.2903  -5.2154  -3.7345  -3.6316  -3.5887  -3.5510  -3.5201  -3.5011
    -3.4542  -3.4473  -2.0981  -1.5930   3.7272   4.2188   5.2064   6.6176
     7.0779   7.7645  15.3809  16.5153

          k = 0.6134 0.4375 0.1921 (  3721 PWs)   bands (ev):

    -5.2592  -5.2095  -3.6996  -3.6509  -3.6210  -3.5645  -3.5136  -3.4975
    -3.4605  -3.4457  -2.0263  -1.6856   3.5451   3.9163   5.3931   6.6425
     7.3423   8.1445  15.5682  16.1860

          k = 0.6134 0.4375 0.2690 (  3717 PWs)   bands (ev):

    -5.2297  -5.2123  -3.6646  -3.6567  -3.6360  -3.5979  -3.5118  -3.5072
    -3.4521  -3.4450  -1.9239  -1.8035   3.5124   3.6486   5.7404   6.1808
     7.9487   8.2514  15.6068  15.8534

          k = 0.1083-0.4375 0.0384 (  3725 PWs)   bands (ev):

    -5.4416  -5.2196  -3.7201  -3.6781  -3.5884  -3.5543  -3.5422  -3.5083
    -3.4521  -3.4127  -2.7493  -1.5498   3.7251   4.8224   5.4755   6.5775
     8.0839   8.3384  15.2910  15.9810

          k = 0.1083-0.4375 0.1153 (  3724 PWs)   bands (ev):

    -5.4084  -5.2208  -3.7083  -3.6835  -3.6116  -3.5561  -3.5434  -3.4999
    -3.4454  -3.4219  -2.6946  -1.6861   3.5961   4.7119   5.8404   6.6860
     8.0980   8.3427  14.8480  15.9927

          k = 0.1083-0.4375 0.1921 (  3730 PWs)   bands (ev):

    -5.3537  -5.2290  -3.7020  -3.6726  -3.6406  -3.5713  -3.5360  -3.4982
    -3.4414  -3.4281  -2.5807  -1.9148   3.5723   4.3650   6.4524   7.0091
     7.7922   8.4339  14.5998  15.7293

          k = 0.1083-0.4375 0.2690 (  3726 PWs)   bands (ev):

    -5.2964  -5.2528  -3.6968  -3.6798  -3.6297  -3.5969  -3.5249  -3.5102
    -3.4362  -3.4304  -2.4040  -2.1722   3.7135   3.9963   6.9471   7.3422
     7.6615   8.1954  14.7342  15.2004

          k = 0.1804-0.3125 0.0384 (  3728 PWs)   bands (ev):

    -5.6035  -5.2393  -3.7135  -3.6926  -3.6217  -3.5623  -3.5532  -3.5145
    -3.4757  -3.4012  -3.1898  -1.6760   3.7219   5.0183   6.0178   7.4320
     8.5852   9.0149  14.4296  15.5203

          k = 0.1804-0.3125 0.1153 (  3734 PWs)   bands (ev):

    -5.5553  -5.2468  -3.7172  -3.6823  -3.6378  -3.5712  -3.5513  -3.5092
    -3.4714  -3.4084  -3.1325  -1.8802   3.7997   5.2759   5.9019   7.5380
     8.6321   8.8754  14.2141  15.5658

          k = 0.1804-0.3125 0.1921 (  3733 PWs)   bands (ev):

    -5.4743  -5.2684  -3.7180  -3.6633  -3.6630  -3.5885  -3.5434  -3.5097
    -3.4627  -3.4209  -3.0095  -2.1997   3.9870   5.0832   6.3861   7.7387
     8.4716   8.6282  14.1574  15.4245

          k = 0.1804-0.3125 0.2690 (  3734 PWs)   bands (ev):

    -5.3857  -5.3135  -3.7092  -3.6893  -3.6386  -3.6122  -3.5311  -3.5183
    -3.4504  -3.4358  -2.8099  -2.5317   4.2851   4.6695   7.1932   7.9586
     8.0116   8.3230  14.4421  14.9588

          k = 0.7578 0.4375 0.0384 (  3705 PWs)   bands (ev):

    -5.3515  -5.2128  -3.7279  -3.6740  -3.5700  -3.5607  -3.5157  -3.4958
    -3.4390  -3.4062  -2.1830  -1.6826   3.3956   4.4555   5.5954   6.4164
     7.4468   8.1463  15.2919  15.7396

          k = 0.7578 0.4375 0.1153 (  3712 PWs)   bands (ev):

    -5.3277  -5.2101  -3.7160  -3.6784  -3.6038  -3.5529  -3.5265  -3.4716
    -3.4381  -3.4161  -2.1546  -1.7257   3.2329   4.1344   5.9187   6.6939
     7.7146   8.0140  14.7656  15.7419

          k = 0.7578 0.4375 0.1921 (  3722 PWs)   bands (ev):

    -5.2891  -5.2106  -3.7090  -3.6625  -3.6496  -3.5480  -3.5272  -3.4650
    -3.4361  -3.4260  -2.0972  -1.8064   3.1122   3.7161   6.3075   7.2359
     7.5329   8.1890  14.4403  15.5325

          k = 0.7578 0.4375 0.2690 (  3729 PWs)   bands (ev):

    -5.2499  -5.2223  -3.7041  -3.6850  -3.6246  -3.5827  -3.5005  -3.4781
    -3.4331  -3.4298  -2.0124  -1.9093   3.1488   3.3612   6.7072   7.1288
     7.8304   8.2038  14.5159  14.9900

          k = 0.2526-0.4375 0.0384 (  3720 PWs)   bands (ev):

    -5.4049  -5.2133  -3.7141  -3.6884  -3.5976  -3.5613  -3.5135  -3.4966
    -3.4317  -3.3925  -2.4851  -1.6477   3.3378   4.5484   5.4296   7.0360
     7.7200   8.7481  14.7403  15.1083

          k = 0.2526-0.4375 0.1153 (  3718 PWs)   bands (ev):

    -5.3758  -5.2136  -3.7211  -3.6742  -3.6155  -3.5701  -3.5239  -3.4725
    -3.4308  -3.3992  -2.4436  -1.7319   3.1814   4.2607   5.9243   7.1493
     7.9872   8.5947  14.2693  14.9361

          k = 0.2526-0.4375 0.1921 (  3724 PWs)   bands (ev):

    -5.3280  -5.2198  -3.7270  -3.6626  -3.6479  -3.5457  -3.5395  -3.4641
    -3.4284  -3.4090  -2.3578  -1.8810   3.1005   3.8398   6.6745   7.3641
     8.1847   8.3244  13.8952  14.8263

          k = 0.2526-0.4375 0.2690 (  3732 PWs)   bands (ev):

    -5.2779  -5.2399  -3.7223  -3.7008  -3.6136  -3.5773  -3.5042  -3.4761
    -3.4243  -3.4178  -2.2266  -2.0590   3.1923   3.4541   7.4407   7.6572
     7.9931   8.0086  13.9854  14.4286

     highest occupied, lowest unoccupied level (ev):     9.6651   12.0838

!    total energy              =    -612.42952822 Ry
     Harris-Foulkes estimate   =    -612.42952841 Ry
     estimated scf accuracy    <       0.00000063 Ry

     convergence has been achieved in  37 iterations

     Using ACE for calculation of exact exchange

     EXX grid:    29851 G-vectors     FFT dimensions: (  36,  36,  60)

     EXX: now go back to refine exchange calculation

     total cpu time spent up to now is    30679.8 secs

     Self-consistent Calculation

     iteration #  1     ecut=    80.00 Ry     beta= 0.70
     Davidson diagonalization with overlap
     ethr =  5.55E-08,  avg # of iterations =  7.1

     total cpu time spent up to now is    30759.7 secs

     total energy              =    -556.52337444 Ry
     Harris-Foulkes estimate   =    -556.56316655 Ry
     estimated scf accuracy    <       0.17878182 Ry

     iteration #  2     ecut=    80.00 Ry     beta= 0.70
     Davidson diagonalization with overlap
     ethr =  4.97E-04,  avg # of iterations =  5.0

     total cpu time spent up to now is    30800.8 secs

     total energy              =    -542.98048034 Ry
     Harris-Foulkes estimate   =    -543.02222400 Ry
     estimated scf accuracy    <       0.08287756 Ry

     iteration #  3     ecut=    80.00 Ry     beta= 0.70
     Davidson diagonalization with overlap
     ethr =  2.30E-04,  avg # of iterations =  2.0

     total cpu time spent up to now is    30824.9 secs

     total energy              =    -542.99688653 Ry
     Harris-Foulkes estimate   =    -542.99823708 Ry
     estimated scf accuracy    <       0.00597563 Ry

     iteration #  4     ecut=    80.00 Ry     beta= 0.70
     Davidson diagonalization with overlap
     ethr =  1.66E-05,  avg # of iterations =  4.2

     total cpu time spent up to now is    30858.3 secs

     total energy              =    -542.99975660 Ry
     Harris-Foulkes estimate   =    -543.00032246 Ry
     estimated scf accuracy    <       0.00557336 Ry

     iteration #  5     ecut=    80.00 Ry     beta= 0.70
     Davidson diagonalization with overlap
     ethr =  1.55E-05,  avg # of iterations =  1.2

     total cpu time spent up to now is    30879.3 secs

     total energy              =    -542.99983074 Ry
     Harris-Foulkes estimate   =    -543.00002284 Ry
     estimated scf accuracy    <       0.00138438 Ry

     iteration #  6     ecut=    80.00 Ry     beta= 0.70
     Davidson diagonalization with overlap
     ethr =  3.85E-06,  avg # of iterations =  3.1

     total cpu time spent up to now is    30907.9 secs

     total energy              =    -542.99983764 Ry
     Harris-Foulkes estimate   =    -543.00017497 Ry
     estimated scf accuracy    <       0.00066082 Ry

     iteration #  7     ecut=    80.00 Ry     beta= 0.70
     Davidson diagonalization with overlap
     ethr =  1.84E-06,  avg # of iterations =  2.7

     total cpu time spent up to now is    30932.0 secs

     total energy              =    -542.99988398 Ry
     Harris-Foulkes estimate   =    -542.99991552 Ry
     estimated scf accuracy    <       0.00008809 Ry

     iteration #  8     ecut=    80.00 Ry     beta= 0.70
     Davidson diagonalization with overlap
     ethr =  2.45E-07,  avg # of iterations =  3.9

     total cpu time spent up to now is    30965.4 secs

     total energy              =    -542.99997098 Ry
     Harris-Foulkes estimate   =    -542.99997655 Ry
     estimated scf accuracy    <       0.00003266 Ry

     iteration #  9     ecut=    80.00 Ry     beta= 0.70
     Davidson diagonalization with overlap
     ethr =  9.07E-08,  avg # of iterations =  1.1

     total cpu time spent up to now is    30986.4 secs

     total energy              =    -542.99996339 Ry
     Harris-Foulkes estimate   =    -542.99997144 Ry
     estimated scf accuracy    <       0.00001854 Ry

     iteration # 10     ecut=    80.00 Ry     beta= 0.70
     Davidson diagonalization with overlap
     ethr =  5.15E-08,  avg # of iterations =  4.0

     total cpu time spent up to now is    31018.7 secs

     total energy              =    -542.99996949 Ry
     Harris-Foulkes estimate   =    -542.99997093 Ry
     estimated scf accuracy    <       0.00000909 Ry

     iteration # 11     ecut=    80.00 Ry     beta= 0.70
     Davidson diagonalization with overlap
     ethr =  2.52E-08,  avg # of iterations =  1.0

     total cpu time spent up to now is    31039.6 secs

     total energy              =    -542.99996753 Ry
     Harris-Foulkes estimate   =    -542.99996957 Ry
     estimated scf accuracy    <       0.00000470 Ry

     iteration # 12     ecut=    80.00 Ry     beta= 0.70
     Davidson diagonalization with overlap
     ethr =  1.30E-08,  avg # of iterations =  4.0

     total cpu time spent up to now is    31071.9 secs

     total energy              =    -542.99996885 Ry
     Harris-Foulkes estimate   =    -542.99996936 Ry
     estimated scf accuracy    <       0.00000198 Ry

     iteration # 13     ecut=    80.00 Ry     beta= 0.70
     Davidson diagonalization with overlap
     ethr =  5.49E-09,  avg # of iterations =  1.0

     total cpu time spent up to now is    31092.9 secs

     End of self-consistent calculation

          k = 0.1083 0.0625 0.0384 (  3752 PWs)   bands (ev):

    -8.1506  -6.9883  -4.6463  -4.6304  -4.6120  -4.5521  -4.5428  -4.3264
    -4.3213  -4.2289  -4.2042  -3.1216   1.7589   7.1388   7.5687   8.2019
     8.9283   9.0369  13.4267  15.7719

          k = 0.1083 0.0625 0.1153 (  3745 PWs)   bands (ev):

    -8.0509  -7.0515  -4.6364  -4.6262  -4.5995  -4.5599  -4.5510  -4.3096
    -4.3095  -4.2402  -4.2100  -3.4170   2.3456   7.2526   7.5309   7.8357
     8.8230   8.8235  13.8678  15.8223

          k = 0.1083 0.0625 0.1921 (  3733 PWs)   bands (ev):

    -7.8666  -7.1848  -4.6216  -4.6173  -4.5738  -4.5732  -4.5490  -4.2906
    -4.2771  -4.2646  -4.2207  -3.8019   3.3073   6.7573   7.4730   7.8930
     8.5140   8.6300  14.5382  15.8616

          k = 0.1083 0.0625 0.2690 (  3732 PWs)   bands (ev):

    -7.6294  -7.3863  -4.6067  -4.6041  -4.5902  -4.5873  -4.4565  -4.3340
    -4.2606  -4.2401  -4.2212  -4.0957   4.4504   5.6489   7.7835   8.0769
     8.1950   8.3837  15.2296  15.7180

          k = 0.1804 0.1875 0.0384 (  3743 PWs)   bands (ev):

    -7.7708  -6.8725  -4.5999  -4.5796  -4.5128  -4.4831  -4.4269  -4.3493
    -4.3114  -4.2649  -4.1924  -2.8950   2.2943   5.4214   6.4154   7.1206
     8.5584   8.5898  14.7438  16.8810

          k = 0.1804 0.1875 0.1153 (  3742 PWs)   bands (ev):

    -7.6861  -6.9151  -4.5974  -4.5717  -4.5218  -4.4881  -4.4302  -4.3299
    -4.2995  -4.2622  -4.1967  -3.1561   2.7436   5.5973   6.1878   7.1241
     8.4064   8.4958  14.8628  16.9399

          k = 0.1804 0.1875 0.1921 (  3737 PWs)   bands (ev):

    -7.5323  -7.0078  -4.5874  -4.5568  -4.5332  -4.4994  -4.4300  -4.3438
    -4.2751  -4.2276  -4.1820  -3.5179   3.4499   5.5234   6.1712   7.2700
     8.0812   8.2135  15.1831  16.8454

          k = 0.1804 0.1875 0.2690 (  3734 PWs)   bands (ev):

    -7.3412  -7.1546  -4.5691  -4.5496  -4.5363  -4.5163  -4.4131  -4.3789
    -4.2536  -4.2340  -4.0573  -3.8367   4.2101   4.9190   6.7545   7.3982
     7.6210   7.8798  15.7129  16.3456

          k = 0.2526 0.3125 0.0384 (  3722 PWs)   bands (ev):

    -7.3235  -6.7829  -4.5652  -4.5468  -4.4353  -4.3737  -4.3647  -4.3133
    -4.2481  -4.1802  -3.9760  -2.6397   2.7912   3.9687   4.9467   6.2710
     7.7497   8.1091  15.6154  16.6186

          k = 0.2526 0.3125 0.1153 (  3737 PWs)   bands (ev):

    -7.2642  -6.8024  -4.5691  -4.5338  -4.4618  -4.3840  -4.3700  -4.3039
    -4.2406  -4.1873  -3.9254  -2.8215   2.7460   4.2164   4.9528   6.3756
     7.8379   7.9787  15.2504  16.5536

          k = 0.2526 0.3125 0.1921 (  3731 PWs)   bands (ev):

    -7.1605  -6.8483  -4.5725  -4.5113  -4.4977  -4.4069  -4.3636  -4.3083
    -4.2302  -4.1960  -3.8151  -3.1044   2.8334   3.9036   5.6511   6.6069
     7.5868   7.8727  15.0610  16.3217

          k = 0.2526 0.3125 0.2690 (  3736 PWs)   bands (ev):

    -7.0388  -6.9282  -4.5651  -4.5408  -4.4719  -4.4371  -4.3476  -4.3263
    -4.2180  -4.2059  -3.6388  -3.3960   3.0826   3.4602   6.5082   6.9409
     7.1889   7.4843  15.2717  15.7908

          k = 0.3248 0.4375 0.0384 (  3710 PWs)   bands (ev):

    -7.0688  -6.7689  -4.5635  -4.5334  -4.4003  -4.3728  -4.3141  -4.2862
    -4.1924  -4.1476  -3.3014  -2.7460   2.2748   3.5507   4.6395   5.8872
     6.8979   7.8313  15.8730  16.0587

          k = 0.3248 0.4375 0.1153 (  3717 PWs)   bands (ev):

    -7.0302  -6.7747  -4.5671  -4.5204  -4.4366  -4.3774  -4.3309  -4.2531
    -4.1908  -4.1557  -3.2732  -2.8012   2.0930   3.1930   5.1808   6.0440
     7.2144   7.6542  15.2249  15.9798

          k = 0.3248 0.4375 0.1921 (  3731 PWs)   bands (ev):

    -6.9645  -6.7925  -4.5739  -4.5005  -4.4891  -4.3613  -4.3423  -4.2451
    -4.1873  -4.1658  -3.2159  -2.8991   1.9803   2.7205   5.8756   6.4027
     7.2425   7.5737  14.8223  15.8378

          k = 0.3248 0.4375 0.2690 (  3736 PWs)   bands (ev):

    -6.8912  -6.8305  -4.5720  -4.5482  -4.4471  -4.4018  -4.3017  -4.2652
    -4.1815  -4.1742  -3.1285  -3.0166   2.0492   2.3105   6.4138   6.8493
     6.9878   7.4631  14.9008  15.3729

          k =-0.1804-0.4375 0.0384 (  3709 PWs)   bands (ev):

    -7.1595  -6.7685  -4.5629  -4.5379  -4.4129  -4.3697  -4.3326  -4.2998
    -4.2136  -4.1607  -3.6455  -2.6235   2.5214   3.8338   4.5287   6.0065
     7.2674   7.9293  15.7655  16.3271

          k =-0.1804-0.4375 0.1153 (  3725 PWs)   bands (ev):

    -7.1127  -6.7792  -4.5667  -4.5250  -4.4440  -4.3778  -4.3474  -4.2735
    -4.2095  -4.1687  -3.6000  -2.7414   2.3580   3.6295   4.9931   6.1374
     7.4960   7.7671  15.2385  16.1906

          k =-0.1804-0.4375 0.1921 (  3733 PWs)   bands (ev):

    -7.0324  -6.8075  -4.5729  -4.5037  -4.4911  -4.3769  -4.3514  -4.2698
    -4.2032  -4.1784  -3.5043  -2.9383   2.3075   3.1887   5.7868   6.4189
     7.3756   7.7057  14.9074  16.0098

          k =-0.1804-0.4375 0.2690 (  3731 PWs)   bands (ev):

    -6.9409  -6.8614  -4.5693  -4.5454  -4.4549  -4.4132  -4.3196  -4.2887
    -4.1956  -4.1869  -3.3553  -3.1587   2.4492   2.7624   6.4838   6.8677
     7.0157   7.4665  15.0316  15.5201

          k =-0.1083-0.3125 0.0384 (  3732 PWs)   bands (ev):

    -7.5380  -6.8189  -4.5774  -4.5598  -4.4694  -4.4236  -4.3648  -4.3318
    -4.2846  -4.2294  -4.1680  -2.7530   2.6387   4.5292   5.6694   6.6519
     8.2026   8.3368  15.2790  16.8665

          k =-0.1083-0.3125 0.1153 (  3733 PWs)   bands (ev):

    -7.4652  -6.8494  -4.5791  -4.5485  -4.4889  -4.4327  -4.3646  -4.3367
    -4.2738  -4.2136  -4.1453  -2.9823   2.8964   4.7967   5.4519   6.7205
     8.1358   8.2492  15.1595  16.9209

          k =-0.1083-0.3125 0.1921 (  3734 PWs)   bands (ev):

    -7.3353  -6.9176  -4.5764  -4.5283  -4.5121  -4.4503  -4.3730  -4.3503
    -4.2575  -4.2118  -4.0523  -3.3176   3.2892   4.7078   5.7271   6.9133
     7.8395   8.0300  15.2015  16.6913

          k =-0.1083-0.3125 0.2690 (  3740 PWs)   bands (ev):

    -7.1782  -7.0299  -4.5629  -4.5394  -4.5004  -4.4737  -4.3757  -4.3665
    -4.2396  -4.2232  -3.8841  -3.6372   3.7399   4.2286   6.5242   7.1640
     7.3776   7.6138  15.5498  16.1215

          k =-0.0361-0.1875 0.0384 (  3750 PWs)   bands (ev):

    -7.9856  -6.9335  -4.6258  -4.6058  -4.5673  -4.5278  -4.4997  -4.3369
    -4.3216  -4.2499  -4.2004  -3.0248   1.9810   6.3567   7.0778   7.6504
     8.7761   8.8572  14.0899  16.4142

          k =-0.0361-0.1875 0.1153 (  3743 PWs)   bands (ev):

    -7.8919  -6.9877  -4.6190  -4.6004  -4.5603  -4.5345  -4.5057  -4.3157
    -4.3096  -4.2623  -4.2060  -3.3066   2.5212   6.4913   6.9048   7.5243
     8.6451   8.6872  14.3888  16.4601

          k =-0.0361-0.1875 0.1921 (  3739 PWs)   bands (ev):

    -7.7196  -7.1033  -4.6044  -4.5895  -4.5555  -4.5429  -4.4994  -4.3143
    -4.2801  -4.2572  -4.2152  -3.6817   3.4004   6.2508   6.8280   7.6158
     8.2951   8.4395  14.9263  16.4568

          k =-0.0361-0.1875 0.2690 (  3736 PWs)   bands (ev):

    -7.5010  -7.2815  -4.5869  -4.5752  -4.5678  -4.5560  -4.4423  -4.3648
    -4.2595  -4.2389  -4.1634  -3.9870   4.4100   5.3984   7.2411   7.7068
     7.9269   8.1604  15.5836  16.1743

          k = 0.0361-0.0625 0.0384 (  3743 PWs)   bands (ev):

    -8.2409  -7.0216  -4.6555  -4.6446  -4.6360  -4.5644  -4.5630  -4.3202
    -4.3184  -4.2146  -4.2056  -3.1735   1.6463   7.6003   7.7933   8.6519
     9.0037   9.1165  12.9507  15.3333

          k = 0.0361-0.0625 0.1153 (  3746 PWs)   bands (ev):

    -8.1385  -7.0899  -4.6448  -4.6409  -4.6225  -4.5724  -4.5715  -4.3070
    -4.3068  -4.2226  -4.2114  -3.4763   2.2538   7.6921   7.8807   8.0628
     8.9001   8.9076  13.4991  15.3890

          k = 0.0361-0.0625 0.1921 (  3749 PWs)   bands (ev):

    -7.9483  -7.2327  -4.6330  -4.6329  -4.5878  -4.5867  -4.5714  -4.2857
    -4.2826  -4.2402  -4.2219  -3.8695   3.2490   7.0133   7.8811   8.0437
     8.6720   8.7305  14.2423  15.4495

          k = 0.0361-0.0625 0.2690 (  3727 PWs)   bands (ev):

    -7.7018  -7.4464  -4.6205  -4.6196  -4.6043  -4.6039  -4.4615  -4.2999
    -4.2606  -4.2476  -4.2382  -4.1647   4.4469   5.7590   8.1325   8.2611
     8.4125   8.5024  14.9369  15.3690

          k = 0.3248 0.1875 0.0384 (  3730 PWs)   bands (ev):

    -7.3869  -6.7902  -4.5726  -4.5344  -4.4522  -4.4222  -4.3569  -4.3058
    -4.2579  -4.2310  -4.0430  -2.6503   2.8352   4.5941   4.8028   6.2084
     7.8223   7.9801  15.9994  17.2312

          k = 0.3248 0.1875 0.1153 (  3726 PWs)   bands (ev):

    -7.3233  -6.8132  -4.5575  -4.5411  -4.4620  -4.4454  -4.3349  -4.3330
    -4.2423  -4.2349  -3.9971  -2.8546   2.9520   4.6510   5.0467   6.1211
     7.6266   8.0781  15.8665  17.1358

          k = 0.3248 0.1875 0.1921 (  3737 PWs)   bands (ev):

    -7.2110  -6.8659  -4.5445  -4.5309  -4.4813  -4.4615  -4.3625  -4.3438
    -4.2286  -4.2268  -3.8933  -3.1635   3.1790   4.3136   5.8086   6.1967
     7.2947   7.9831  15.8257  16.8858

          k = 0.3248 0.1875 0.2690 (  3725 PWs)   bands (ev):

    -7.0778  -6.9555  -4.5349  -4.5146  -4.4935  -4.4744  -4.3777  -4.3681
    -4.2201  -4.2192  -3.7189  -3.4707   3.5010   3.8951   6.4524   6.5867
     6.9971   7.5287  16.0486  16.4721

          k = 0.3969 0.3125 0.0384 (  3724 PWs)   bands (ev):

    -7.0564  -6.7621  -4.5855  -4.4883  -4.3938  -4.3697  -4.3465  -4.3104
    -4.2280  -4.1905  -3.4420  -2.5384   2.7881   3.7182   4.7202   5.1361
     7.0584   7.1764  16.1355  17.1876

          k = 0.3969 0.3125 0.1153 (  3717 PWs)   bands (ev):

    -7.0179  -6.7673  -4.5655  -4.5021  -4.4291  -4.3740  -4.3430  -4.3006
    -4.2200  -4.2044  -3.3967  -2.6346   2.5994   3.5176   4.9212   5.5147
     6.8922   7.4090  16.0414  17.1421

          k = 0.3969 0.3125 0.1921 (  3727 PWs)   bands (ev):

    -6.9523  -6.7837  -4.5346  -4.5114  -4.4690  -4.3927  -4.3385  -4.3014
    -4.2214  -4.2078  -3.3044  -2.7990   2.4938   3.1571   5.1569   6.2257
     6.5489   7.6653  15.8992  16.8943

          k = 0.3969 0.3125 0.2690 (  3725 PWs)   bands (ev):

    -6.8797  -6.8202  -4.5259  -4.5100  -4.4679  -4.4240  -4.3330  -4.3191
    -4.2162  -4.2088  -3.1654  -2.9888   2.5656   2.8042   5.5263   5.9761
     7.0876   7.5815  15.9798  16.3879

          k = 0.4691 0.4375 0.0384 (  3709 PWs)   bands (ev):

    -6.9698  -6.7674  -4.5890  -4.4834  -4.3826  -4.3630  -4.3303  -4.2990
    -4.2356  -4.1832  -3.1232  -2.6381   2.6211   3.6103   4.5278   5.2895
     6.6695   7.0131  15.8900  17.5403

          k = 0.4691 0.4375 0.1153 (  3719 PWs)   bands (ev):

    -6.9391  -6.7670  -4.5681  -4.4971  -4.4234  -4.3530  -4.3453  -4.2743
    -4.2320  -4.1999  -3.0943  -2.6808   2.4366   3.2802   4.6376   5.8218
     6.6922   7.1161  15.8606  17.4921

          k = 0.4691 0.4375 0.1921 (  3710 PWs)   bands (ev):

    -6.8879  -6.7724  -4.5362  -4.5047  -4.4715  -4.3752  -4.3281  -4.2706
    -4.2296  -4.2171  -3.0370  -2.7583   2.2876   2.8518   4.9094   6.2695
     6.5754   7.4921  15.7828  17.0879

          k = 0.4691 0.4375 0.2690 (  3729 PWs)   bands (ev):

    -6.8336  -6.7929  -4.5263  -4.5094  -4.4659  -4.4149  -4.3083  -4.2879
    -4.2277  -4.2224  -2.9542  -2.8557   2.3003   2.4983   5.3113   5.7885
     7.2266   7.5748  15.9011  16.3913

          k =-0.0361-0.4375 0.0384 (  3727 PWs)   bands (ev):

    -7.2025  -6.7677  -4.5791  -4.5038  -4.4214  -4.3936  -4.3532  -4.3116
    -4.2358  -4.2053  -3.7804  -2.5511   2.9327   4.0999   4.5681   5.5974
     7.4351   7.5604  16.5142  16.7477

          k =-0.0361-0.4375 0.1153 (  3727 PWs)   bands (ev):

    -7.1520  -6.7812  -4.5610  -4.5157  -4.4422  -4.4099  -4.3396  -4.3189
    -4.2245  -4.2160  -3.7292  -2.7069   2.8278   3.9966   5.0880   5.5536
     7.2144   7.7658  16.2162  16.8443

          k =-0.0361-0.4375 0.1921 (  3730 PWs)   bands (ev):

    -7.0643  -6.8143  -4.5333  -4.5228  -4.4705  -4.4257  -4.3548  -4.3234
    -4.2224  -4.2104  -3.6215  -2.9564   2.8389   3.6805   5.6013   5.9850
     6.8541   7.8468  15.9965  16.7425

          k =-0.0361-0.4375 0.2690 (  3730 PWs)   bands (ev):

    -6.9635  -6.8751  -4.5273  -4.5108  -4.4763  -4.4457  -4.3607  -4.3476
    -4.2128  -4.2073  -3.4514  -3.2222   3.0109   3.3120   5.9284   6.3131
     6.9294   7.5597  16.0693  16.4063

          k = 0.0361-0.3125 0.0384 (  3729 PWs)   bands (ev):

    -7.5862  -6.8278  -4.5721  -4.5696  -4.4779  -4.4585  -4.3584  -4.3196
    -4.2971  -4.2704  -4.1673  -2.7780   2.5683   4.9469   5.5946   6.7572
     8.2279   8.3242  15.3374  17.4592

          k = 0.0361-0.3125 0.1153 (  3739 PWs)   bands (ev):

    -7.5107  -6.8609  -4.5721  -4.5596  -4.4908  -4.4698  -4.3616  -4.3298
    -4.2745  -4.2548  -4.1527  -3.0166   2.8944   5.1800   5.4736   6.6927
     8.0579   8.3194  15.3373  17.4539

          k = 0.0361-0.3125 0.1921 (  3735 PWs)   bands (ev):

    -7.3753  -6.9343  -4.5673  -4.5395  -4.5073  -4.4822  -4.3779  -4.3574
    -4.2534  -4.2296  -4.0817  -3.3603   3.3899   4.9545   5.8775   6.7822
     7.7610   8.0799  15.4950  17.0762

          k = 0.0361-0.3125 0.2690 (  3742 PWs)   bands (ev):

    -7.2106  -7.0539  -4.5514  -4.5295  -4.5139  -4.4957  -4.3896  -4.3823
    -4.2387  -4.2284  -3.9238  -3.6814   3.9227   4.4538   6.6219   7.0014
     7.4084   7.5611  15.8995  16.4775

          k = 0.1083-0.1875 0.0384 (  3748 PWs)   bands (ev):

    -7.9111  -6.9115  -4.6177  -4.5951  -4.5471  -4.4975  -4.4932  -4.3437
    -4.3179  -4.2552  -4.1987  -2.9805   2.0890   5.9321   7.1116   7.2505
     8.7555   8.7571  14.3114  16.5340

          k = 0.1083-0.1875 0.1153 (  3732 PWs)   bands (ev):

    -7.8203  -6.9616  -4.6125  -4.5892  -4.5468  -4.5030  -4.4956  -4.3241
    -4.3062  -4.2620  -4.2053  -3.2554   2.6019   6.0727   6.7559   7.3561
     8.5858   8.6311  14.5388  16.5889

          k = 0.1083-0.1875 0.1921 (  3741 PWs)   bands (ev):

    -7.6542  -7.0692  -4.5993  -4.5772  -4.5508  -4.5199  -4.4785  -4.3261
    -4.2853  -4.2325  -4.2178  -3.6263   3.4290   5.9772   6.5535   7.5514
     8.1828   8.4023  14.9918  16.5685

          k = 0.1083-0.1875 0.2690 (  3737 PWs)   bands (ev):

    -7.4448  -7.2365  -4.5808  -4.5632  -4.5602  -4.5402  -4.4320  -4.3711
    -4.2601  -4.2363  -4.1315  -3.9372   4.3574   5.2409   7.0039   7.6040
     7.8134   8.1119  15.6018  16.2150

          k = 0.5413 0.3125 0.0384 (  3722 PWs)   bands (ev):

    -6.8583  -6.7947  -4.6087  -4.3965  -4.3769  -4.3692  -4.3303  -4.3223
    -4.2841  -4.2024  -2.8589  -2.6481   3.2982   3.3480   3.7945   5.6924
     6.2380   6.3644  15.5365  18.4709

          k = 0.5413 0.3125 0.1153 (  3711 PWs)   bands (ev):

    -6.8392  -6.7852  -4.5845  -4.4292  -4.4076  -4.3800  -4.3111  -4.3059
    -4.2744  -4.2273  -2.8422  -2.6620   2.9940   3.1745   3.7993   6.0612
     6.2432   6.6967  15.9441  18.0278

          k = 0.5413 0.3125 0.1921 (  3718 PWs)   bands (ev):

    -6.8086  -6.7724  -4.5400  -4.4598  -4.4457  -4.3925  -4.3112  -4.2887
    -4.2634  -4.2627  -2.8105  -2.6885   2.6963   2.8480   4.0743   5.5950
     6.9124   7.2406  16.5983  17.4075

          k = 0.5413 0.3125 0.2690 (  3710 PWs)   bands (ev):

    -6.7806  -6.7678  -4.4840  -4.4758  -4.4696  -4.4268  -4.3120  -4.3034
    -4.2651  -4.2604  -2.7688  -2.7256   2.5572   2.6135   4.5143   5.0455
     7.4250   7.5473  16.9988  17.0132

          k = 0.6134 0.4375 0.0384 (  3713 PWs)   bands (ev):

    -6.9428  -6.7692  -4.6002  -4.4392  -4.3840  -4.3671  -4.3404  -4.3172
    -4.2483  -4.1978  -3.1273  -2.5561   2.9714   3.4685   4.3617   5.2417
     6.6303   6.7059  15.7670  17.9229

          k = 0.6134 0.4375 0.1153 (  3716 PWs)   bands (ev):

    -6.9146  -6.7670  -4.5773  -4.4625  -4.4141  -4.3766  -4.3299  -4.3045
    -4.2390  -4.2186  -3.0927  -2.6067   2.7431   3.2745   4.3285   5.8130
     6.3959   7.0666  16.0515  17.5356

          k = 0.6134 0.4375 0.1921 (  3721 PWs)   bands (ev):

    -6.8677  -6.7686  -4.5356  -4.4856  -4.4530  -4.3922  -4.3261  -4.2985
    -4.2426  -4.2306  -3.0244  -2.6980   2.5446   2.9499   4.5225   5.9099
     6.6176   7.4749  16.3570  17.0961

          k = 0.6134 0.4375 0.2690 (  3717 PWs)   bands (ev):

    -6.8186  -6.7837  -4.4986  -4.4897  -4.4716  -4.4252  -4.3240  -4.3141
    -4.2401  -4.2321  -2.9268  -2.8117   2.5115   2.6600   4.9101   5.4016
     7.2687   7.5895  16.4745  16.7356

          k = 0.1083-0.4375 0.0384 (  3725 PWs)   bands (ev):

    -7.1877  -6.7678  -4.5690  -4.5288  -4.4107  -4.3721  -4.3545  -4.3080
    -4.2302  -4.1844  -3.7395  -2.5756   2.7630   3.9337   4.6294   5.7429
     7.4415   7.6861  16.1604  16.7929

          k = 0.1083-0.4375 0.1153 (  3724 PWs)   bands (ev):

    -7.1384  -6.7803  -4.5569  -4.5319  -4.4447  -4.3768  -4.3564  -4.2993
    -4.2212  -4.1941  -3.6897  -2.7181   2.6224   3.8671   4.9950   5.8411
     7.4342   7.7066  15.6755  16.8688

          k = 0.1083-0.4375 0.1921 (  3730 PWs)   bands (ev):

    -7.0532  -6.8117  -4.5544  -4.5135  -4.4842  -4.3972  -4.3510  -4.3028
    -4.2140  -4.1998  -3.5850  -2.9499   2.6058   3.4900   5.6551   6.2013
     7.0926   7.7996  15.4148  16.5917

          k = 0.1083-0.4375 0.2690 (  3726 PWs)   bands (ev):

    -6.9557  -6.8703  -4.5501  -4.5290  -4.4663  -4.4273  -4.3400  -4.3213
    -4.2074  -4.2015  -3.4208  -3.2013   2.7693   3.0837   6.1656   6.5802
     6.9619   7.5377  15.5518  16.0358

          k = 0.1804-0.3125 0.0384 (  3728 PWs)   bands (ev):

    -7.4464  -6.8024  -4.5763  -4.5481  -4.4567  -4.3892  -4.3671  -4.3261
    -4.2695  -4.1788  -4.1332  -2.7045   2.7411   4.1512   5.3873   6.5586
     8.0027   8.3315  15.3142  16.5304

          k = 0.1804-0.3125 0.1153 (  3734 PWs)   bands (ev):

    -7.3791  -6.8281  -4.5795  -4.5361  -4.4780  -4.4014  -4.3721  -4.3198
    -4.2631  -4.1863  -4.0823  -2.9151   2.8575   4.4821   5.1760   6.6792
     8.0518   8.1786  15.0643  16.5393

          k = 0.1804-0.3125 0.1921 (  3733 PWs)   bands (ev):

    -7.2600  -6.8867  -4.5799  -4.5137  -4.5103  -4.4240  -4.3707  -4.3262
    -4.2505  -4.1990  -3.9708  -3.2314   3.0891   4.3310   5.6250   6.9040
     7.8763   7.9025  14.9826  16.3385

          k = 0.1804-0.3125 0.2690 (  3734 PWs)   bands (ev):

    -7.1177  -6.9853  -4.5691  -4.5440  -4.4845  -4.4531  -4.3592  -4.3422
    -4.2333  -4.2151  -3.7934  -3.5435   3.4326   3.8666   6.5051   7.2082
     7.3289   7.5580  15.2644  15.8103

          k = 0.7578 0.4375 0.0384 (  3705 PWs)   bands (ev):

    -7.0154  -6.7673  -4.5725  -4.5188  -4.3816  -4.3783  -4.3165  -4.2880
    -4.2098  -4.1627  -3.1589  -2.7362   2.3733   3.5480   4.6950   5.5251
     6.7520   7.4612  16.0305  16.6491

          k = 0.7578 0.4375 0.1153 (  3712 PWs)   bands (ev):

    -6.9810  -6.7698  -4.5604  -4.5215  -4.4316  -4.3636  -4.3349  -4.2571
    -4.2089  -4.1745  -3.1355  -2.7749   2.1923   3.1853   5.0413   5.8591
     7.0285   7.3203  15.5451  16.6442

          k = 0.7578 0.4375 0.1921 (  3722 PWs)   bands (ev):

    -6.9231  -6.7812  -4.5566  -4.4998  -4.4894  -4.3638  -4.3339  -4.2500
    -4.2069  -4.1887  -3.0886  -2.8451   2.0612   2.7218   5.4496   6.4827
     6.7861   7.5333  15.2345  16.4079

          k = 0.7578 0.4375 0.2690 (  3729 PWs)   bands (ev):

    -6.8600  -6.8100  -4.5544  -4.5333  -4.4546  -4.4054  -4.3001  -4.2690
    -4.2029  -4.1971  -3.0186  -2.9323   2.1010   2.3324   5.8830   6.3419
     7.1344   7.5406  15.3256  15.8256

          k = 0.2526-0.4375 0.0384 (  3720 PWs)   bands (ev):

    -7.1191  -6.7693  -4.5645  -4.5339  -4.4130  -4.3689  -4.3212  -4.2898
    -4.1960  -4.1466  -3.4913  -2.6881   2.3353   3.6896   4.5309   6.0878
     7.0744   7.9956  15.5977  16.0285

          k = 0.2526-0.4375 0.1153 (  3718 PWs)   bands (ev):

    -7.0762  -6.7779  -4.5716  -4.5176  -4.4409  -4.3837  -4.3360  -4.2570
    -4.1940  -4.1534  -3.4535  -2.7744   2.1583   3.3667   5.0937   6.2145
     7.3637   7.8260  15.0747  15.8182

          k = 0.2526-0.4375 0.1921 (  3724 PWs)   bands (ev):

    -7.0026  -6.8016  -4.5795  -4.5035  -4.4873  -4.3656  -4.3499  -4.2495
    -4.1893  -4.1626  -3.3748  -2.9229   2.0740   2.8982   5.9296   6.4546
     7.5264   7.5573  14.6846  15.6831

          k = 0.2526-0.4375 0.2690 (  3732 PWs)   bands (ev):

    -6.9193  -6.8483  -4.5769  -4.5521  -4.4479  -4.4052  -4.3080  -4.2702
    -4.1815  -4.1721  -3.2533  -3.0952   2.1819   2.4754   6.7530   6.7822
     7.1575   7.3560  14.7786  15.2462

     highest occupied, lowest unoccupied level (ev):     9.1165   12.9507

!    total energy              =    -542.99996866 Ry
     Harris-Foulkes estimate   =    -542.99996890 Ry
     estimated scf accuracy    <       0.00000051 Ry

     convergence has been achieved in  13 iterations

     Using ACE for calculation of exact exchange

     total energy              =    -543.00289777 Ry
     Harris-Foulkes estimate   =    -543.00289801 Ry
     est. exchange err (dexx)  =       0.00292911 Ry
     - averaged Fock potential =      18.13088920 Ry
     + Fock energy (ACE)       =      -9.02944129 Ry

     EXX: now go back to refine exchange calculation

     total cpu time spent up to now is    69722.4 secs

     Self-consistent Calculation

     iteration #  1     ecut=    80.00 Ry     beta= 0.70
     Davidson diagonalization with overlap
     ethr =  5.49E-09,  avg # of iterations =  5.6
