
     Program PWSCF v.7.1 starts on 15Jan2023 at 17:16:46 

     This program is part of the open-source Quantum ESPRESSO suite
     for quantum simulation of materials; please cite
         "P. Giannozzi et al., J. Phys.:Condens. Matter 21 395502 (2009);
         "P. Giannozzi et al., J. Phys.:Condens. Matter 29 465901 (2017);
         "P. Giannozzi et al., J. Chem. Phys. 152 154105 (2020);
          URL http://www.quantum-espresso.org", 
     in publications or presentations arising from this work. More details at
     http://www.quantum-espresso.org/quote

     Parallel version (MPI & OpenMP), running on       4 processor cores
     Number of MPI processes:                 1
     Threads/MPI process:                     4

     MPI processes distributed on     1 nodes
     5931 MiB available memory on the printing compute node when the environment starts

     Waiting for input...
     Reading input from standard input

     Current dimensions of program PWSCF are:
     Max number of different atomic species (ntypx) = 10
     Max number of k-points (npk) =  40000
     Max angular momentum in pseudopotentials (lmaxx) =  4

     Atomic positions and unit cell read from directory:
     out_qa/qa.save/
     Atomic positions from file used, from input discarded

     file Si.pbe-n-kjpaw_psl.1.0.0.UPF: wavefunction(s)  3S 3P renormalized
     file O.pbe-n-kjpaw_psl.1.0.0.UPF: wavefunction(s)  2S 2P renormalized
     file Hf.pbe-spdfn-kjpaw_psl.1.0.0.UPF: wavefunction(s)  5P 4F renormalized
     Found identity + ( -0.5000 -0.5000 -0.5000) symmetry
     This is a supercell, fractional translations are disabled
     Message from routine setup:
     using ibrav=0 with symmetry is DISCOURAGED, use correct ibrav instead

     Subspace diagonalization in iterative solution of the eigenvalue problem:
     a serial algorithm will be used


     G-vector sticks info
     --------------------
     sticks:   dense  smooth     PW     G-vecs:    dense   smooth      PW
     Sum        9753    4889   1305               660773   233543   32325

     Using Slab Decomposition


     Title: 
     HfSiO4_SCF                                                                 


     bravais-lattice index     =            0
     lattice parameter (alat)  =      12.3841  a.u.
     unit-cell volume          =    1728.6376 (a.u.)^3
     number of atoms/cell      =           24
     number of atomic types    =            3
     number of electrons       =       256.00
     number of Kohn-Sham states=          154
     kinetic-energy cutoff     =     100.0000  Ry
     charge density cutoff     =     800.0000  Ry
     Exchange-correlation= SLA  PW   PBX  PBC
                           (   1   4   3   4   0   0   0)

     celldm(1)=  12.384137  celldm(2)=   0.000000  celldm(3)=   0.000000
     celldm(4)=   0.000000  celldm(5)=   0.000000  celldm(6)=   0.000000

     crystal axes: (cart. coord. in units of alat)
               a(1) = (   1.000000   0.000000   0.000000 )  
               a(2) = (   0.000000   1.000000   0.000000 )  
               a(3) = (   0.000000   0.000000   0.910137 )  

     reciprocal axes: (cart. coord. in units 2 pi/alat)
               b(1) = (  1.000000  0.000000  0.000000 )  
               b(2) = (  0.000000  1.000000  0.000000 )  
               b(3) = (  0.000000  0.000000  1.098736 )  


     PseudoPot. # 1 for Si read from file:
     /home/shigeki/.burai/.pseudopot/Si.pbe-n-kjpaw_psl.1.0.0.UPF
     MD5 check sum: 9aa59a521a94d8167cd5008988816ac3
     Pseudo is Projector augmented-wave + core cor, Zval =  4.0
     Generated using "atomic" code by A. Dal Corso  v.5.1.2
     Shape of augmentation charge: PSQ
     Using radial grid of 1141 points,  6 beta functions with: 
                l(1) =   0
                l(2) =   0
                l(3) =   1
                l(4) =   1
                l(5) =   2
                l(6) =   2
     Q(r) pseudized with 0 coefficients 


     PseudoPot. # 2 for O  read from file:
     /home/shigeki/.burai/.pseudopot/O.pbe-n-kjpaw_psl.1.0.0.UPF
     MD5 check sum: 2dcd67f835f9a12042f32bdaf0e8bcf6
     Pseudo is Projector augmented-wave + core cor, Zval =  6.0
     Generated using "atomic" code by A. Dal Corso  v.5.1.2
     Shape of augmentation charge: PSQ
     Using radial grid of 1095 points,  4 beta functions with: 
                l(1) =   0
                l(2) =   0
                l(3) =   1
                l(4) =   1
     Q(r) pseudized with 0 coefficients 


     PseudoPot. # 3 for Hf read from file:
     /home/shigeki/.burai/.pseudopot/Hf.pbe-spdfn-kjpaw_psl.1.0.0.UPF
     MD5 check sum: 054ab3954715fe03e42536d2af1a941a
     Pseudo is Projector augmented-wave + core cor, Zval = 36.0
     Generated using "atomic" code by A. Dal Corso  v.5.1.2
     Shape of augmentation charge: PSQ
     Using radial grid of 1271 points,  8 beta functions with: 
                l(1) =   0
                l(2) =   0
                l(3) =   1
                l(4) =   1
                l(5) =   2
                l(6) =   2
                l(7) =   3
                l(8) =   3
     Q(r) pseudized with 0 coefficients 


     atomic species   valence    mass     pseudopotential
        Si             4.00    28.08500     Si( 1.00)
        O              6.00    15.99900     O ( 1.00)
        Hf            36.00   178.49000     Hf( 1.00)

      8 Sym. Ops. (no inversion) found


                                    s                        frac. trans.

      isym =  1     identity                                     

 cryst.   s( 1) = (     1          0          0      )
                  (     0          1          0      )
                  (     0          0          1      )

 cart.    s( 1) = (  1.0000000  0.0000000  0.0000000 )
                  (  0.0000000  1.0000000  0.0000000 )
                  (  0.0000000  0.0000000  1.0000000 )


      isym =  2     180 deg rotation - cart. axis [0,0,1]        

 cryst.   s( 2) = (    -1          0          0      )
                  (     0         -1          0      )
                  (     0          0          1      )

 cart.    s( 2) = ( -1.0000000  0.0000000  0.0000000 )
                  (  0.0000000 -1.0000000  0.0000000 )
                  (  0.0000000  0.0000000  1.0000000 )


      isym =  3     180 deg rotation - cart. axis [1,1,0]        

 cryst.   s( 3) = (     0          1          0      )
                  (     1          0          0      )
                  (     0          0         -1      )

 cart.    s( 3) = (  0.0000000  1.0000000  0.0000000 )
                  (  1.0000000  0.0000000  0.0000000 )
                  (  0.0000000  0.0000000 -1.0000000 )


      isym =  4     180 deg rotation - cart. axis [1,-1,0]       

 cryst.   s( 4) = (     0         -1          0      )
                  (    -1          0          0      )
                  (     0          0         -1      )

 cart.    s( 4) = (  0.0000000 -1.0000000  0.0000000 )
                  ( -1.0000000  0.0000000  0.0000000 )
                  (  0.0000000  0.0000000 -1.0000000 )


      isym =  5     inv. 180 deg rotation - cart. axis [0,1,0]   

 cryst.   s( 5) = (     1          0          0      )
                  (     0         -1          0      )
                  (     0          0          1      )

 cart.    s( 5) = (  1.0000000  0.0000000  0.0000000 )
                  (  0.0000000 -1.0000000  0.0000000 )
                  (  0.0000000  0.0000000  1.0000000 )


      isym =  6     inv. 180 deg rotation - cart. axis [1,0,0]   

 cryst.   s( 6) = (    -1          0          0      )
                  (     0          1          0      )
                  (     0          0          1      )

 cart.    s( 6) = ( -1.0000000  0.0000000  0.0000000 )
                  (  0.0000000  1.0000000  0.0000000 )
                  (  0.0000000  0.0000000  1.0000000 )


      isym =  7     inv.  90 deg rotation - cart. axis [0,0,-1]  

 cryst.   s( 7) = (     0          1          0      )
                  (    -1          0          0      )
                  (     0          0         -1      )

 cart.    s( 7) = (  0.0000000 -1.0000000  0.0000000 )
                  (  1.0000000  0.0000000  0.0000000 )
                  (  0.0000000  0.0000000 -1.0000000 )


      isym =  8     inv.  90 deg rotation - cart. axis [0,0,1]   

 cryst.   s( 8) = (     0         -1          0      )
                  (     1          0          0      )
                  (     0          0         -1      )

 cart.    s( 8) = (  0.0000000  1.0000000  0.0000000 )
                  ( -1.0000000  0.0000000  0.0000000 )
                  (  0.0000000  0.0000000 -1.0000000 )


   Cartesian axes

     site n.     atom                  positions (alat units)
         1           Hf  tau(   1) = (   0.5000000   0.5000000   0.4550685  )
         2           Hf  tau(   2) = (   0.0000000   0.5000000   0.6826027  )
         3           Hf  tau(   3) = (   0.0000000   0.0000000   0.0000000  )
         4           Hf  tau(   4) = (   0.5000000   0.0000000   0.2275342  )
         5           Si  tau(   5) = (   0.5000000   0.0000000   0.6826027  )
         6           Si  tau(   6) = (   0.0000000   0.0000000   0.4550685  )
         7           Si  tau(   7) = (   0.0000000   0.5000000   0.2275342  )
         8           Si  tau(   8) = (   0.5000000   0.5000000   0.0000000  )
         9           O   tau(   9) = (   0.8148870   0.0000000   0.2905166  )
        10           O   tau(  10) = (   0.5000000   0.1851130   0.5180508  )
        11           O   tau(  11) = (   0.5000000   0.8148870   0.5180508  )
        12           O   tau(  12) = (   0.1851130   0.0000000   0.2905166  )
        13           O   tau(  13) = (   0.0000000   0.8148870   0.6196203  )
        14           O   tau(  14) = (   0.6851130   0.0000000   0.8471545  )
        15           O   tau(  15) = (   0.3148870   0.0000000   0.8471545  )
        16           O   tau(  16) = (   0.0000000   0.1851130   0.6196203  )
        17           O   tau(  17) = (   0.3148870   0.5000000   0.7455851  )
        18           O   tau(  18) = (   0.0000000   0.6851130   0.0629824  )
        19           O   tau(  19) = (   0.0000000   0.3148870   0.0629824  )
        20           O   tau(  20) = (   0.6851130   0.5000000   0.7455851  )
        21           O   tau(  21) = (   0.5000000   0.3148870   0.1645518  )
        22           O   tau(  22) = (   0.1851130   0.5000000   0.3920861  )
        23           O   tau(  23) = (   0.8148870   0.5000000   0.3920861  )
        24           O   tau(  24) = (   0.5000000   0.6851130   0.1645518  )

   Crystallographic axes

     site n.     atom                  positions (cryst. coord.)
         1           Hf  tau(   1) = (  0.5000000  0.5000000  0.5000000  )
         2           Hf  tau(   2) = (  0.0000000  0.5000000  0.7500000  )
         3           Hf  tau(   3) = (  0.0000000  0.0000000  0.0000000  )
         4           Hf  tau(   4) = (  0.5000000  0.0000000  0.2500000  )
         5           Si  tau(   5) = (  0.5000000  0.0000000  0.7500000  )
         6           Si  tau(   6) = (  0.0000000  0.0000000  0.5000000  )
         7           Si  tau(   7) = (  0.0000000  0.5000000  0.2500000  )
         8           Si  tau(   8) = (  0.5000000  0.5000000  0.0000000  )
         9           O   tau(   9) = (  0.8148870  0.0000000  0.3192010  )
        10           O   tau(  10) = (  0.5000000  0.1851130  0.5692010  )
        11           O   tau(  11) = (  0.5000000  0.8148870  0.5692010  )
        12           O   tau(  12) = (  0.1851130  0.0000000  0.3192010  )
        13           O   tau(  13) = (  0.0000000  0.8148870  0.6807990  )
        14           O   tau(  14) = (  0.6851130  0.0000000  0.9307990  )
        15           O   tau(  15) = (  0.3148870  0.0000000  0.9307990  )
        16           O   tau(  16) = (  0.0000000  0.1851130  0.6807990  )
        17           O   tau(  17) = (  0.3148870  0.5000000  0.8192010  )
        18           O   tau(  18) = (  0.0000000  0.6851130  0.0692010  )
        19           O   tau(  19) = (  0.0000000  0.3148870  0.0692010  )
        20           O   tau(  20) = (  0.6851130  0.5000000  0.8192010  )
        21           O   tau(  21) = (  0.5000000  0.3148870  0.1807990  )
        22           O   tau(  22) = (  0.1851130  0.5000000  0.4307990  )
        23           O   tau(  23) = (  0.8148870  0.5000000  0.4307990  )
        24           O   tau(  24) = (  0.5000000  0.6851130  0.1807990  )

     number of k points=     6 (tetrahedron method)
                       cart. coord. in units 2pi/alat
        k(    1) = (   0.1250000   0.1250000   0.1373420), wk =   0.2500000
        k(    2) = (   0.1250000   0.1250000   0.4120259), wk =   0.2500000
        k(    3) = (   0.1250000   0.3750000   0.1373420), wk =   0.5000000
        k(    4) = (   0.1250000   0.3750000   0.4120259), wk =   0.5000000
        k(    5) = (   0.3750000   0.3750000   0.1373420), wk =   0.2500000
        k(    6) = (   0.3750000   0.3750000   0.4120259), wk =   0.2500000

                       cryst. coord.
        k(    1) = (   0.1250000   0.1250000   0.1250000), wk =   0.2500000
        k(    2) = (   0.1250000   0.1250000   0.3750000), wk =   0.2500000
        k(    3) = (   0.1250000   0.3750000   0.1250000), wk =   0.5000000
        k(    4) = (   0.1250000   0.3750000   0.3750000), wk =   0.5000000
        k(    5) = (   0.3750000   0.3750000   0.1250000), wk =   0.2500000
        k(    6) = (   0.3750000   0.3750000   0.3750000), wk =   0.2500000

     Dense  grid:   660773 G-vectors     FFT dimensions: ( 120, 120, 108)

     Smooth grid:   233543 G-vectors     FFT dimensions: (  80,  80,  72)

     Dynamical RAM for                 wfc:      68.59 MB

     Dynamical RAM for     wfc (w. buffer):      68.59 MB

     Dynamical RAM for           str. fact:      30.25 MB

     Dynamical RAM for           local pot:       0.00 MB

     Dynamical RAM for          nlocal pot:     146.10 MB

     Dynamical RAM for                qrad:      16.33 MB

     Dynamical RAM for          rho,v,vnew:      65.84 MB

     Dynamical RAM for           G-vectors:      39.59 MB

     Dynamical RAM for          h,s,v(r/c):       4.34 MB

     Dynamical RAM for          <psi|beta>:       0.77 MB

     Dynamical RAM for                 psi:     137.19 MB

     Dynamical RAM for                hpsi:     137.19 MB

     Dynamical RAM for                spsi:     137.19 MB

     Dynamical RAM for      wfcinit/wfcrot:     150.31 MB

     Dynamical RAM for           addusdens:    5757.16 MB

     Estimated static dynamical RAM per process >     466.37 MB

     Estimated max dynamical RAM per process >       6.08 GB

     The potential is recalculated from file :
     out_qa/qa.save/charge-density

     Starting wfcs are  168 randomized atomic wfcs
     Checking if some PAW data can be deallocated... 

     Band Structure Calculation
     Davidson diagonalization with overlap

     Computing kpt #:     1  of     6
     total cpu time spent up to now is     1235.5 secs

     Computing kpt #:     2  of     6
     total cpu time spent up to now is     2432.8 secs

     Computing kpt #:     3  of     6
     total cpu time spent up to now is     3796.2 secs

     Computing kpt #:     4  of     6
     total cpu time spent up to now is     5019.9 secs

     Computing kpt #:     5  of     6
     total cpu time spent up to now is     6283.5 secs

     Computing kpt #:     6  of     6
     total cpu time spent up to now is     7622.1 secs

     ethr =  3.91E-10,  avg # of iterations = 86.5

     Warning: too many iterations in bisection
     ef =  14.648476 sumk = 256.000000 electrons

     total cpu time spent up to now is     7622.3 secs

     End of band structure calculation

          k = 0.1250 0.1250 0.1373 ( 29195 PWs)   bands (ev):

  -189.8211-189.8207-189.8187-189.8171-189.8166-189.8150-189.8131-189.8118
  -189.8108-189.8097-189.8090-189.8079-189.8065-189.8045-189.8027-189.8022
  -189.7980-189.7976-189.7942-189.7925 -50.4485 -50.4452 -50.4436 -50.4404
   -19.2754 -19.2727 -19.2674 -19.2569 -19.1777 -19.1746 -19.1741 -19.1688
   -19.0808 -19.0698 -19.0662 -19.0640  -9.2448  -8.7394  -8.6780  -8.2925
    -7.7001  -7.4650  -7.3982  -7.3614  -6.9473  -6.9422  -6.9147  -6.9049
    -6.8610  -6.8297  -6.8205  -6.8108  -0.2222  -0.2210  -0.2163  -0.2126
    -0.2113  -0.2075  -0.2070  -0.2056  -0.2027  -0.1976  -0.1965  -0.1943
    -0.1925  -0.1920  -0.1911  -0.1879  -0.1878  -0.1870  -0.1866  -0.1865
    -0.1839  -0.1809  -0.1807  -0.1780  -0.1727  -0.1722  -0.1717  -0.1702
     2.3690   2.7626   3.4165   3.6749   4.1882   4.5168   4.5839   4.5841
     4.5966   5.1564   5.2341   5.3870   5.8254   5.8925   6.1344   6.2056
     6.2986   6.5223   6.5504   6.5626   6.9868   7.0043   7.0454   7.0652
     7.4055   7.4412   7.7247   7.9252   7.9841   8.0935   8.1217   8.1222
     8.1458   8.3301   8.6725   8.7385   8.8008   8.8232   8.9053   9.0016
     9.0198   9.0473   9.0988   9.1809   9.2475   9.3504   9.3631   9.8176
    15.7423  15.9500  16.0492  16.2038  16.2250  16.2817  16.5547  16.5574
    16.7094  16.7113  16.8917  17.2458  17.2789  17.3488  17.4693  17.4805
    17.5610  18.1295  18.5598  18.8240  19.2908  19.5754  19.5779  19.7456
    19.7947  19.9814

     occupation numbers 
     1.0000   1.0000   1.0000   1.0000   1.0000   1.0000   1.0000   1.0000
     1.0000   1.0000   1.0000   1.0000   1.0000   1.0000   1.0000   1.0000
     1.0000   1.0000   1.0000   1.0000   1.0000   1.0000   1.0000   1.0000
     1.0000   1.0000   1.0000   1.0000   1.0000   1.0000   1.0000   1.0000
     1.0000   1.0000   1.0000   1.0000   1.0000   1.0000   1.0000   1.0000
     1.0000   1.0000   1.0000   1.0000   1.0000   1.0000   1.0000   1.0000
     1.0000   1.0000   1.0000   1.0000   1.0000   1.0000   1.0000   1.0000
     1.0000   1.0000   1.0000   1.0000   1.0000   1.0000   1.0000   1.0000
     1.0000   1.0000   1.0000   1.0000   1.0000   1.0000   1.0000   1.0000
     1.0000   1.0000   1.0000   1.0000   1.0000   1.0000   1.0000   1.0000
     1.0000   1.0000   1.0000   1.0000   1.0000   1.0000   1.0000   1.0000
     1.0000   1.0000   1.0000   1.0000   1.0000   1.0000   1.0000   1.0000
     1.0000   1.0000   1.0000   1.0000   1.0000   1.0000   1.0000   1.0000
     1.0000   1.0000   1.0000   1.0000   1.0000   1.0000   1.0000   1.0000
     1.0000   1.0000   1.0000   1.0000   1.0000   1.0000   1.0000   1.0000
     1.0000   1.0000   1.0000   1.0000   1.0000   1.0000   1.0000   1.0000
     0.0000   0.0000   0.0000   0.0000   0.0000   0.0000   0.0000   0.0000
     0.0000   0.0000   0.0000   0.0000   0.0000   0.0000   0.0000   0.0000
     0.0000   0.0000   0.0000   0.0000   0.0000   0.0000   0.0000   0.0000
     0.0000   0.0000

          k = 0.1250 0.1250 0.4120 ( 29185 PWs)   bands (ev):

  -189.8197-189.8191-189.8186-189.8180-189.8157-189.8142-189.8129-189.8119
  -189.8112-189.8107-189.8102-189.8097-189.8056-189.8045-189.8036-189.8013
  -189.7930-189.7922-189.7918-189.7903 -50.4479 -50.4467 -50.4421 -50.4410
   -19.2744 -19.2708 -19.2670 -19.2609 -19.1785 -19.1771 -19.1749 -19.1727
   -19.0768 -19.0710 -19.0677 -19.0650  -8.9227  -8.5756  -8.5223  -8.3600
    -8.0775  -7.7506  -7.4407  -7.3235  -6.9439  -6.9345  -6.9263  -6.9224
    -6.8489  -6.8370  -6.8232  -6.8147  -0.2242  -0.2231  -0.2112  -0.2100
    -0.2093  -0.2076  -0.2069  -0.2062  -0.2024  -0.1989  -0.1982  -0.1963
    -0.1954  -0.1954  -0.1893  -0.1888  -0.1866  -0.1861  -0.1856  -0.1840
    -0.1831  -0.1816  -0.1808  -0.1785  -0.1726  -0.1721  -0.1718  -0.1689
     2.5873   2.9213   2.9614   3.7779   4.2308   4.2487   4.4062   4.8258
     5.1033   5.2059   5.5286   5.5853   6.0242   6.0781   6.0982   6.4667
     6.4797   6.5349   6.6211   6.7124   6.9201   6.9423   7.0729   7.2280
     7.3152   7.3352   7.3422   7.5572   7.5697   7.6824   7.7811   7.8092
     7.9615   8.0486   8.4783   8.7254   8.7452   8.7577   8.8397   8.8476
     8.8799   9.0757   9.3972   9.4564   9.5074   9.5341   9.5564   9.7554
    15.7514  15.8519  16.0975  16.2565  16.3955  16.5292  16.5512  16.6315
    16.6507  16.9052  17.2868  17.3504  17.6271  17.7337  17.9015  17.9515
    17.9738  18.0991  18.5018  18.7658  18.8658  19.1573  19.5513  19.6014
    19.6252  19.6754

     occupation numbers 
     1.0000   1.0000   1.0000   1.0000   1.0000   1.0000   1.0000   1.0000
     1.0000   1.0000   1.0000   1.0000   1.0000   1.0000   1.0000   1.0000
     1.0000   1.0000   1.0000   1.0000   1.0000   1.0000   1.0000   1.0000
     1.0000   1.0000   1.0000   1.0000   1.0000   1.0000   1.0000   1.0000
     1.0000   1.0000   1.0000   1.0000   1.0000   1.0000   1.0000   1.0000
     1.0000   1.0000   1.0000   1.0000   1.0000   1.0000   1.0000   1.0000
     1.0000   1.0000   1.0000   1.0000   1.0000   1.0000   1.0000   1.0000
     1.0000   1.0000   1.0000   1.0000   1.0000   1.0000   1.0000   1.0000
     1.0000   1.0000   1.0000   1.0000   1.0000   1.0000   1.0000   1.0000
     1.0000   1.0000   1.0000   1.0000   1.0000   1.0000   1.0000   1.0000
     1.0000   1.0000   1.0000   1.0000   1.0000   1.0000   1.0000   1.0000
     1.0000   1.0000   1.0000   1.0000   1.0000   1.0000   1.0000   1.0000
     1.0000   1.0000   1.0000   1.0000   1.0000   1.0000   1.0000   1.0000
     1.0000   1.0000   1.0000   1.0000   1.0000   1.0000   1.0000   1.0000
     1.0000   1.0000   1.0000   1.0000   1.0000   1.0000   1.0000   1.0000
     1.0000   1.0000   1.0000   1.0000   1.0000   1.0000   1.0000   1.0000
     0.0000   0.0000   0.0000   0.0000   0.0000   0.0000   0.0000   0.0000
     0.0000   0.0000   0.0000   0.0000   0.0000   0.0000   0.0000   0.0000
     0.0000   0.0000   0.0000   0.0000   0.0000   0.0000   0.0000   0.0000
     0.0000   0.0000

          k = 0.1250 0.3750 0.1373 ( 29191 PWs)   bands (ev):

  -189.8179-189.8163-189.8159-189.8151-189.8146-189.8136-189.8132-189.8124
  -189.8120-189.8116-189.8107-189.8090-189.8085-189.8077-189.8075-189.8033
  -189.7982-189.7926-189.7918-189.7872 -50.4473 -50.4458 -50.4431 -50.4415
   -19.2720 -19.2698 -19.2521 -19.2388 -19.2120 -19.2052 -19.1407 -19.1330
   -19.1031 -19.0904 -19.0682 -19.0667  -9.0521  -8.8238  -8.5225  -8.3433
    -7.5717  -7.4171  -7.3479  -7.2948  -7.1092  -7.0865  -7.0376  -6.9930
    -6.9141  -6.8839  -6.8665  -6.8420  -0.2271  -0.2229  -0.2163  -0.2152
    -0.2108  -0.2104  -0.2087  -0.2051  -0.2047  -0.2020  -0.1993  -0.1982
    -0.1980  -0.1957  -0.1938  -0.1929  -0.1887  -0.1880  -0.1867  -0.1864
    -0.1820  -0.1782  -0.1774  -0.1767  -0.1745  -0.1738  -0.1719  -0.1691
     2.7346   2.9313   3.7546   3.9499   4.5122   4.5950   4.6044   4.7379
     4.8132   5.0158   5.2470   5.4906   5.5925   5.5973   6.1557   6.1891
     6.2585   6.3992   6.4481   6.4743   6.7993   6.8686   6.9291   7.0074
     7.3602   7.5076   7.6448   7.7740   7.8929   7.9858   8.0203   8.1934
     8.2889   8.4054   8.5001   8.6395   8.7932   8.8370   8.8868   8.9262
     8.9412   9.0394   9.0783   9.1300   9.1442   9.3516   9.3574   9.5900
    15.6439  15.6995  15.7685  15.8430  16.1375  16.4164  16.4446  16.6147
    16.7381  16.9639  16.9765  17.1821  17.2690  17.5473  17.6376  17.6911
    17.7517  18.2672  19.0123  19.1239  19.3793  19.4423  19.7596  19.8554
    19.9467  19.9470

     occupation numbers 
     1.0000   1.0000   1.0000   1.0000   1.0000   1.0000   1.0000   1.0000
     1.0000   1.0000   1.0000   1.0000   1.0000   1.0000   1.0000   1.0000
     1.0000   1.0000   1.0000   1.0000   1.0000   1.0000   1.0000   1.0000
     1.0000   1.0000   1.0000   1.0000   1.0000   1.0000   1.0000   1.0000
     1.0000   1.0000   1.0000   1.0000   1.0000   1.0000   1.0000   1.0000
     1.0000   1.0000   1.0000   1.0000   1.0000   1.0000   1.0000   1.0000
     1.0000   1.0000   1.0000   1.0000   1.0000   1.0000   1.0000   1.0000
     1.0000   1.0000   1.0000   1.0000   1.0000   1.0000   1.0000   1.0000
     1.0000   1.0000   1.0000   1.0000   1.0000   1.0000   1.0000   1.0000
     1.0000   1.0000   1.0000   1.0000   1.0000   1.0000   1.0000   1.0000
     1.0000   1.0000   1.0000   1.0000   1.0000   1.0000   1.0000   1.0000
     1.0000   1.0000   1.0000   1.0000   1.0000   1.0000   1.0000   1.0000
     1.0000   1.0000   1.0000   1.0000   1.0000   1.0000   1.0000   1.0000
     1.0000   1.0000   1.0000   1.0000   1.0000   1.0000   1.0000   1.0000
     1.0000   1.0000   1.0000   1.0000   1.0000   1.0000   1.0000   1.0000
     1.0000   1.0000   1.0000   1.0000   1.0000   1.0000   1.0000   1.0000
     0.0000   0.0000   0.0000   0.0000   0.0000   0.0000   0.0000   0.0000
     0.0000   0.0000   0.0000   0.0000   0.0000   0.0000   0.0000   0.0000
     0.0000   0.0000   0.0000   0.0000   0.0000   0.0000   0.0000   0.0000
     0.0000   0.0000

          k = 0.1250 0.3750 0.4120 ( 29208 PWs)   bands (ev):

  -189.8216-189.8196-189.8191-189.8183-189.8161-189.8151-189.8143-189.8139
  -189.8129-189.8118-189.8113-189.8098-189.8083-189.8058-189.8050-189.7987
  -189.7969-189.7954-189.7902-189.7894 -50.4470 -50.4463 -50.4425 -50.4419
   -19.2729 -19.2719 -19.2489 -19.2435 -19.2120 -19.2092 -19.1389 -19.1358
   -19.0990 -19.0938 -19.0676 -19.0669  -8.7567  -8.5861  -8.4337  -8.3479
    -7.9116  -7.7147  -7.4513  -7.3425  -7.0931  -7.0810  -6.9981  -6.9944
    -6.9109  -6.9001  -6.8566  -6.8480  -0.2294  -0.2279  -0.2140  -0.2120
    -0.2094  -0.2088  -0.2073  -0.2066  -0.2050  -0.2040  -0.2011  -0.2000
    -0.1943  -0.1939  -0.1938  -0.1929  -0.1880  -0.1875  -0.1862  -0.1860
    -0.1804  -0.1784  -0.1774  -0.1768  -0.1752  -0.1744  -0.1717  -0.1686
     2.8814   2.9960   3.5498   3.9669   4.3889   4.5084   4.7922   5.0033
     5.0862   5.2368   5.2952   5.4094   5.8820   5.9502   5.9545   6.0643
     6.3778   6.4435   6.6449   6.6739   6.8195   6.9059   7.0320   7.1925
     7.2876   7.3456   7.3746   7.5807   7.6682   7.6748   7.7665   7.8544
     8.0886   8.1118   8.2923   8.4966   8.5250   8.6742   8.7242   8.7799
     8.9723   9.0405   9.1231   9.1506   9.4787   9.5668   9.5894   9.6635
    15.6139  15.6623  15.8064  15.8796  16.4371  16.5930  16.6739  16.6857
    16.8673  17.0656  17.2956  17.3921  17.7194  17.9096  18.0273  18.0321
    18.0939  18.1580  18.7835  18.9735  19.1888  19.2708  19.6363  19.6633
    19.8259  19.9273

     occupation numbers 
     1.0000   1.0000   1.0000   1.0000   1.0000   1.0000   1.0000   1.0000
     1.0000   1.0000   1.0000   1.0000   1.0000   1.0000   1.0000   1.0000
     1.0000   1.0000   1.0000   1.0000   1.0000   1.0000   1.0000   1.0000
     1.0000   1.0000   1.0000   1.0000   1.0000   1.0000   1.0000   1.0000
     1.0000   1.0000   1.0000   1.0000   1.0000   1.0000   1.0000   1.0000
     1.0000   1.0000   1.0000   1.0000   1.0000   1.0000   1.0000   1.0000
     1.0000   1.0000   1.0000   1.0000   1.0000   1.0000   1.0000   1.0000
     1.0000   1.0000   1.0000   1.0000   1.0000   1.0000   1.0000   1.0000
     1.0000   1.0000   1.0000   1.0000   1.0000   1.0000   1.0000   1.0000
     1.0000   1.0000   1.0000   1.0000   1.0000   1.0000   1.0000   1.0000
     1.0000   1.0000   1.0000   1.0000   1.0000   1.0000   1.0000   1.0000
     1.0000   1.0000   1.0000   1.0000   1.0000   1.0000   1.0000   1.0000
     1.0000   1.0000   1.0000   1.0000   1.0000   1.0000   1.0000   1.0000
     1.0000   1.0000   1.0000   1.0000   1.0000   1.0000   1.0000   1.0000
     1.0000   1.0000   1.0000   1.0000   1.0000   1.0000   1.0000   1.0000
     1.0000   1.0000   1.0000   1.0000   1.0000   1.0000   1.0000   1.0000
     0.0000   0.0000   0.0000   0.0000   0.0000   0.0000   0.0000   0.0000
     0.0000   0.0000   0.0000   0.0000   0.0000   0.0000   0.0000   0.0000
     0.0000   0.0000   0.0000   0.0000   0.0000   0.0000   0.0000   0.0000
     0.0000   0.0000

          k = 0.3750 0.3750 0.1373 ( 29165 PWs)   bands (ev):

  -189.8192-189.8153-189.8140-189.8136-189.8133-189.8126-189.8115-189.8105
  -189.8093-189.8089-189.8081-189.8066-189.8059-189.8052-189.8032-189.8021
  -189.7945-189.7933-189.7891-189.7882 -50.4461 -50.4448 -50.4440 -50.4427
   -19.2678 -19.2621 -19.2529 -19.2318 -19.2069 -19.1802 -19.1650 -19.1367
   -19.1119 -19.0880 -19.0802 -19.0723  -8.8520  -8.6356  -8.6095  -8.4118
    -7.4754  -7.3446  -7.3278  -7.2396  -7.1151  -7.1098  -7.0729  -7.0581
    -7.0346  -7.0281  -6.9954  -6.9895  -0.2289  -0.2244  -0.2227  -0.2185
    -0.2143  -0.2100  -0.2093  -0.2076  -0.2071  -0.2045  -0.2023  -0.2003
    -0.2002  -0.1991  -0.1950  -0.1941  -0.1888  -0.1883  -0.1880  -0.1876
    -0.1834  -0.1801  -0.1778  -0.1731  -0.1719  -0.1713  -0.1711  -0.1702
     3.2542   3.4449   3.8460   4.1066   4.5747   4.7209   4.7830   4.8300
     4.9181   5.0964   5.4668   5.4801   5.4931   5.5267   5.5765   5.7217
     6.2955   6.4038   6.4546   6.5877   6.7124   6.7646   6.7659   6.9809
     7.3923   7.4901   7.5609   7.6206   7.6220   7.9319   8.0031   8.2457
     8.4039   8.4373   8.4554   8.5975   8.6218   8.6624   8.6842   8.9498
     9.0028   9.0475   9.0722   9.0890   9.2138   9.2566   9.3144   9.4444
    15.4649  15.4655  15.5136  15.5383  16.3162  16.4158  16.5410  16.5686
    16.6493  16.7784  16.8913  16.8930  17.7045  17.7881  17.9212  17.9776
    18.2383  18.6697  19.0868  19.2823  19.4194  19.4735  19.5241  19.6732
    20.2133  20.2248

     occupation numbers 
     1.0000   1.0000   1.0000   1.0000   1.0000   1.0000   1.0000   1.0000
     1.0000   1.0000   1.0000   1.0000   1.0000   1.0000   1.0000   1.0000
     1.0000   1.0000   1.0000   1.0000   1.0000   1.0000   1.0000   1.0000
     1.0000   1.0000   1.0000   1.0000   1.0000   1.0000   1.0000   1.0000
     1.0000   1.0000   1.0000   1.0000   1.0000   1.0000   1.0000   1.0000
     1.0000   1.0000   1.0000   1.0000   1.0000   1.0000   1.0000   1.0000
     1.0000   1.0000   1.0000   1.0000   1.0000   1.0000   1.0000   1.0000
     1.0000   1.0000   1.0000   1.0000   1.0000   1.0000   1.0000   1.0000
     1.0000   1.0000   1.0000   1.0000   1.0000   1.0000   1.0000   1.0000
     1.0000   1.0000   1.0000   1.0000   1.0000   1.0000   1.0000   1.0000
     1.0000   1.0000   1.0000   1.0000   1.0000   1.0000   1.0000   1.0000
     1.0000   1.0000   1.0000   1.0000   1.0000   1.0000   1.0000   1.0000
     1.0000   1.0000   1.0000   1.0000   1.0000   1.0000   1.0000   1.0000
     1.0000   1.0000   1.0000   1.0000   1.0000   1.0000   1.0000   1.0000
     1.0000   1.0000   1.0000   1.0000   1.0000   1.0000   1.0000   1.0000
     1.0000   1.0000   1.0000   1.0000   1.0000   1.0000   1.0000   1.0000
     0.0000   0.0000   0.0000   0.0000   0.0000   0.0000   0.0000   0.0000
     0.0000   0.0000   0.0000   0.0000   0.0000   0.0000   0.0000   0.0000
     0.0000   0.0000   0.0000   0.0000   0.0000   0.0000   0.0000   0.0000
     0.0000   0.0000

          k = 0.3750 0.3750 0.4120 ( 29196 PWs)   bands (ev):

  -189.8225-189.8174-189.8163-189.8152-189.8150-189.8142-189.8135-189.8129
  -189.8123-189.8115-189.8110-189.8096-189.8075-189.8069-189.8060-189.8055
  -189.7924-189.7917-189.7913-189.7891 -50.4459 -50.4454 -50.4434 -50.4430
   -19.2707 -19.2696 -19.2462 -19.2397 -19.2005 -19.1924 -19.1517 -19.1422
   -19.1057 -19.0971 -19.0752 -19.0729  -8.5860  -8.4498  -8.4121  -8.3210
    -7.8241  -7.6773  -7.5086  -7.4027  -7.0881  -7.0820  -7.0369  -7.0331
    -7.0311  -7.0217  -6.9816  -6.9723  -0.2331  -0.2315  -0.2231  -0.2205
    -0.2086  -0.2082  -0.2073  -0.2068  -0.2047  -0.2045  -0.2036  -0.2026
    -0.1983  -0.1963  -0.1936  -0.1917  -0.1883  -0.1867  -0.1864  -0.1857
    -0.1813  -0.1798  -0.1764  -0.1759  -0.1749  -0.1733  -0.1717  -0.1701
     3.3737   3.6327   3.6491   4.1842   4.5632   4.9088   4.9113   4.9961
     5.0632   5.1520   5.2533   5.3132   5.7458   5.8305   5.9734   6.0001
     6.0423   6.0816   6.2778   6.4794   6.8311   6.8608   6.9114   7.1019
     7.3117   7.5341   7.5411   7.5877   7.5906   7.8118   7.9702   7.9782
     8.0877   8.1093   8.2988   8.3792   8.4207   8.5210   8.6113   8.7151
     8.9314   8.9790   9.0854   9.1724   9.2227   9.2749   9.4710   9.5301
    15.4193  15.4345  15.5441  15.5883  16.5422  16.6751  16.6854  16.8096
    17.0326  17.0817  17.2167  17.3569  18.0318  18.0361  18.2275  18.3564
    18.4061  18.4441  19.1748  19.2193  19.3157  19.4377  19.4576  19.5526
    19.7971  20.0093

     occupation numbers 
     1.0000   1.0000   1.0000   1.0000   1.0000   1.0000   1.0000   1.0000
     1.0000   1.0000   1.0000   1.0000   1.0000   1.0000   1.0000   1.0000
     1.0000   1.0000   1.0000   1.0000   1.0000   1.0000   1.0000   1.0000
     1.0000   1.0000   1.0000   1.0000   1.0000   1.0000   1.0000   1.0000
     1.0000   1.0000   1.0000   1.0000   1.0000   1.0000   1.0000   1.0000
     1.0000   1.0000   1.0000   1.0000   1.0000   1.0000   1.0000   1.0000
     1.0000   1.0000   1.0000   1.0000   1.0000   1.0000   1.0000   1.0000
     1.0000   1.0000   1.0000   1.0000   1.0000   1.0000   1.0000   1.0000
     1.0000   1.0000   1.0000   1.0000   1.0000   1.0000   1.0000   1.0000
     1.0000   1.0000   1.0000   1.0000   1.0000   1.0000   1.0000   1.0000
     1.0000   1.0000   1.0000   1.0000   1.0000   1.0000   1.0000   1.0000
     1.0000   1.0000   1.0000   1.0000   1.0000   1.0000   1.0000   1.0000
     1.0000   1.0000   1.0000   1.0000   1.0000   1.0000   1.0000   1.0000
     1.0000   1.0000   1.0000   1.0000   1.0000   1.0000   1.0000   1.0000
     1.0000   1.0000   1.0000   1.0000   1.0000   1.0000   1.0000   1.0000
     1.0000   1.0000   1.0000   1.0000   1.0000   1.0000   1.0000   1.0000
     0.0000   0.0000   0.0000   0.0000   0.0000   0.0000   0.0000   0.0000
     0.0000   0.0000   0.0000   0.0000   0.0000   0.0000   0.0000   0.0000
     0.0000   0.0000   0.0000   0.0000   0.0000   0.0000   0.0000   0.0000
     0.0000   0.0000

     the Fermi energy is    14.6485 ev
     (compare with:     9.6677 eV, computed in scf)

     Writing all to output data dir out_qa/qa.save/

     init_run     :     31.89s CPU     24.82s WALL (       1 calls)
     electrons    :   9193.02s CPU   7596.72s WALL (       1 calls)

     Called by init_run:
     wfcinit      :      0.00s CPU      0.00s WALL (       1 calls)
     wfcinit:atom :      0.48s CPU      0.63s WALL (       6 calls)
     wfcinit:wfcr :    188.39s CPU    140.82s WALL (       6 calls)
     potinit      :      8.65s CPU      3.75s WALL (       1 calls)
     hinit0       :     10.89s CPU      6.28s WALL (       1 calls)

     Called by electrons:
     c_bands      :   9192.80s CPU   7596.50s WALL (       1 calls)
     v_of_rho     :      1.66s CPU      0.62s WALL (       1 calls)
     v_h          :      0.09s CPU      0.03s WALL (       1 calls)
     v_xc         :      1.57s CPU      0.59s WALL (       1 calls)
     newd         :     11.99s CPU     14.35s WALL (       1 calls)
     PAW_pot      :      5.57s CPU      2.36s WALL (       1 calls)

     Called by c_bands:
     init_us_2    :      0.31s CPU      0.36s WALL (       6 calls)
     init_us_2:cp :      0.31s CPU      0.36s WALL (       6 calls)
     cegterg      :   8996.35s CPU   7451.33s WALL (      29 calls)

     Called by sum_band:

     Called by *egterg:
     cdiaghg      :     62.04s CPU     62.07s WALL (     525 calls)
     cegterg:over :   1313.20s CPU   1314.12s WALL (     519 calls)
     cegterg:upda :    742.43s CPU    734.20s WALL (     519 calls)
     cegterg:last :   2051.07s CPU   2032.72s WALL (     199 calls)
     h_psi        :   3924.38s CPU   2391.92s WALL (     554 calls)
     s_psi        :    896.61s CPU    892.11s WALL (     554 calls)
     g_psi        :     22.14s CPU      6.07s WALL (     519 calls)

     Called by h_psi:
     h_psi:calbec :    978.11s CPU    971.75s WALL (     554 calls)
     vloc_psi     :   2045.10s CPU    524.93s WALL (     554 calls)
     add_vuspsi   :    891.67s CPU    892.24s WALL (     554 calls)

     General routines
     calbec       :    978.08s CPU    971.75s WALL (     554 calls)
     fft          :      3.52s CPU      1.53s WALL (      13 calls)
     ffts         :      1.26s CPU      0.70s WALL (       1 calls)
     fftw         :   1759.67s CPU    452.28s WALL (   66626 calls)
     interpolate  :      1.33s CPU      0.72s WALL (       1 calls)
     davcio       :      0.04s CPU      0.39s WALL (      12 calls)

     Parallel routines

     PAW routines
     PAW_pot      :      5.57s CPU      2.36s WALL (       1 calls)

     PWSCF        :      2h33m CPU      2h 7m WALL


   This run was terminated on:  19:23:49  15Jan2023            

=------------------------------------------------------------------------------=
   JOB DONE.
=------------------------------------------------------------------------------=
