
     Program PWSCF v.6.7MaX starts on  3Nov2022 at 19:47:15 

     This program is part of the open-source Quantum ESPRESSO suite
     for quantum simulation of materials; please cite
         "P. Giannozzi et al., J. Phys.:Condens. Matter 21 395502 (2009);
         "P. Giannozzi et al., J. Phys.:Condens. Matter 29 465901 (2017);
          URL http://www.quantum-espresso.org", 
     in publications or presentations arising from this work. More details at
     http://www.quantum-espresso.org/quote

     Parallel version (MPI), running on     1 processors

     MPI processes distributed on     1 nodes
     Waiting for input...
     Reading input from standard input

     Current dimensions of program PWSCF are:
     Max number of different atomic species (ntypx) = 10
     Max number of k-points (npk) =  40000
     Max angular momentum in pseudopotentials (lmaxx) =  3

     File ./gan_wz/gan_wz.update deleted, as requested

     File ./gan_wz/gan_wz.bfgs deleted, as requested
     file N.pbe-rrkjus.UPF: wavefunction(s)  2S renormalized

     Subspace diagonalization in iterative solution of the eigenvalue problem:
     a serial algorithm will be used


     G-vector sticks info
     --------------------
     sticks:   dense  smooth     PW     G-vecs:    dense   smooth      PW
     Sum         913     595    199                35591    19411    3609



     bravais-lattice index     =            4
     lattice parameter (alat)  =       6.0282  a.u.
     unit-cell volume          =     308.5974 (a.u.)^3
     number of atoms/cell      =            4
     number of atomic types    =            2
     number of electrons       =        36.00
     number of Kohn-Sham states=           18
     kinetic-energy cutoff     =      60.0000  Ry
     charge density cutoff     =     360.0000  Ry
     scf convergence threshold =      1.0E-14
     mixing beta               =       0.7000
     number of iterations used =            8  plain     mixing
     energy convergence thresh.=      1.0E-05
     force convergence thresh. =      1.0E-04
     Exchange-correlation=  SLA  PW   PBE  PBE
                           (   1   4   3   4   0   0   0)
     nstep                     =          200


     celldm(1)=   6.028226  celldm(2)=   0.000000  celldm(3)=   1.626646
     celldm(4)=   0.000000  celldm(5)=   0.000000  celldm(6)=   0.000000

     crystal axes: (cart. coord. in units of alat)
               a(1) = (   1.000000   0.000000   0.000000 )  
               a(2) = (  -0.500000   0.866025   0.000000 )  
               a(3) = (   0.000000   0.000000   1.626646 )  

     reciprocal axes: (cart. coord. in units 2 pi/alat)
               b(1) = (  1.000000  0.577350 -0.000000 )  
               b(2) = (  0.000000  1.154701  0.000000 )  
               b(3) = (  0.000000 -0.000000  0.614762 )  


     PseudoPot. # 1 for Ga read from file:
     /home/shigeki/.burai/.pseudopot/Ga.pbe-n-van.UPF
     MD5 check sum: c4a2f5e459d74fd8114b062e68c1095a
     Pseudo is Ultrasoft + core correction, Zval = 13.0
     Generated by new atomic code, or converted to UPF format
     Using radial grid of  871 points,  6 beta functions with: 
                l(1) =   0
                l(2) =   0
                l(3) =   1
                l(4) =   1
                l(5) =   2
                l(6) =   2
     Q(r) pseudized with  8 coefficients,  rinner =    1.000   1.000   1.000
                                                       1.000   1.000

     PseudoPot. # 2 for N  read from file:
     /home/shigeki/.burai/.pseudopot/N.pbe-rrkjus.UPF
     MD5 check sum: 0c3fbe5807a93f9ba59d5a7019aa238b
     Pseudo is Ultrasoft, Zval =  5.0
     Generated by new atomic code, or converted to UPF format
     Using radial grid of 1257 points,  4 beta functions with: 
                l(1) =   0
                l(2) =   0
                l(3) =   1
                l(4) =   1
     Q(r) pseudized with 0 coefficients 


     atomic species   valence    mass     pseudopotential
        Ga            13.00    69.72300     Ga( 1.00)
        N              5.00    14.00674     N ( 1.00)

     No symmetry found


                                    s                        frac. trans.

      isym =  1     identity                                     

 cryst.   s( 1) = (     1          0          0      )
                  (     0          1          0      )
                  (     0          0          1      )

 cart.    s( 1) = (  1.0000000  0.0000000  0.0000000 )
                  (  0.0000000  1.0000000  0.0000000 )
                  (  0.0000000  0.0000000  1.0000000 )


     point group C_1 (1)    
     there are  1 classes
     the character table:

       E    
A      1.00

     the symmetry operations in each class and the name of the first element:

     E        1
          identity                                               

   Cartesian axes

     site n.     atom                  positions (alat units)
         1           Ga  tau(   1) = (   0.5000005   0.2886748   0.0000000  )
         2           Ga  tau(   2) = (  -0.0000005   0.5773506   0.8133229  )
         3           N   tau(   3) = (   0.5000005   0.2886748   0.6099922  )
         4           N   tau(   4) = (  -0.0000005   0.5773506   1.4233150  )

   Crystallographic axes

     site n.     atom                  positions (cryst. coord.)
         1           Ga  tau(   1) = (  0.6666670  0.3333330  0.0000000  )
         2           Ga  tau(   2) = (  0.3333330  0.6666670  0.5000000  )
         3           N   tau(   3) = (  0.6666670  0.3333330  0.3750000  )
         4           N   tau(   4) = (  0.3333330  0.6666670  0.8750000  )

     number of k points=    98
                       cart. coord. in units 2pi/alat
        k(    1) = (   0.0714286   0.1237179   0.0768452), wk =   0.0204082
        k(    2) = (   0.0714286   0.1237179   0.2305357), wk =   0.0204082
        k(    3) = (   0.0714286   0.1237179  -0.2305357), wk =   0.0204082
        k(    4) = (   0.0714286   0.1237179  -0.0768452), wk =   0.0204082
        k(    5) = (   0.0714286   0.2886751   0.0768452), wk =   0.0204082
        k(    6) = (   0.0714286   0.2886751   0.2305357), wk =   0.0204082
        k(    7) = (   0.0714286   0.2886751  -0.2305357), wk =   0.0204082
        k(    8) = (   0.0714286   0.2886751  -0.0768452), wk =   0.0204082
        k(    9) = (   0.0714286   0.4536324   0.0768452), wk =   0.0204082
        k(   10) = (   0.0714286   0.4536324   0.2305357), wk =   0.0204082
        k(   11) = (   0.0714286   0.4536324  -0.2305357), wk =   0.0204082
        k(   12) = (   0.0714286   0.4536324  -0.0768452), wk =   0.0204082
        k(   13) = (   0.0714286  -0.5361110   0.0768452), wk =   0.0204082
        k(   14) = (   0.0714286  -0.5361110   0.2305357), wk =   0.0204082
        k(   15) = (   0.0714286  -0.5361110  -0.2305357), wk =   0.0204082
        k(   16) = (   0.0714286  -0.5361110  -0.0768452), wk =   0.0204082
        k(   17) = (   0.0714286  -0.3711537   0.0768452), wk =   0.0204082
        k(   18) = (   0.0714286  -0.3711537   0.2305357), wk =   0.0204082
        k(   19) = (   0.0714286  -0.3711537  -0.2305357), wk =   0.0204082
        k(   20) = (   0.0714286  -0.3711537  -0.0768452), wk =   0.0204082
        k(   21) = (   0.0714286  -0.2061965   0.0768452), wk =   0.0204082
        k(   22) = (   0.0714286  -0.2061965   0.2305357), wk =   0.0204082
        k(   23) = (   0.0714286  -0.2061965  -0.2305357), wk =   0.0204082
        k(   24) = (   0.0714286  -0.2061965  -0.0768452), wk =   0.0204082
        k(   25) = (   0.0714286  -0.0412393   0.0768452), wk =   0.0204082
        k(   26) = (   0.0714286  -0.0412393   0.2305357), wk =   0.0204082
        k(   27) = (   0.0714286  -0.0412393  -0.2305357), wk =   0.0204082
        k(   28) = (   0.0714286  -0.0412393  -0.0768452), wk =   0.0204082
        k(   29) = (   0.2142857   0.2061965   0.0768452), wk =   0.0204082
        k(   30) = (   0.2142857   0.2061965   0.2305357), wk =   0.0204082
        k(   31) = (   0.2142857   0.2061965  -0.2305357), wk =   0.0204082
        k(   32) = (   0.2142857   0.2061965  -0.0768452), wk =   0.0204082
        k(   33) = (   0.2142857   0.3711537   0.0768452), wk =   0.0204082
        k(   34) = (   0.2142857   0.3711537   0.2305357), wk =   0.0204082
        k(   35) = (   0.2142857   0.3711537  -0.2305357), wk =   0.0204082
        k(   36) = (   0.2142857   0.3711537  -0.0768452), wk =   0.0204082
        k(   37) = (   0.2142857   0.5361110   0.0768452), wk =   0.0204082
        k(   38) = (   0.2142857   0.5361110   0.2305357), wk =   0.0204082
        k(   39) = (   0.2142857   0.5361110  -0.2305357), wk =   0.0204082
        k(   40) = (   0.2142857   0.5361110  -0.0768452), wk =   0.0204082
        k(   41) = (   0.2142857  -0.4536324   0.0768452), wk =   0.0204082
        k(   42) = (   0.2142857  -0.4536324   0.2305357), wk =   0.0204082
        k(   43) = (   0.2142857  -0.4536324  -0.2305357), wk =   0.0204082
        k(   44) = (   0.2142857  -0.4536324  -0.0768452), wk =   0.0204082
        k(   45) = (   0.2142857  -0.2886751   0.0768452), wk =   0.0204082
        k(   46) = (   0.2142857  -0.2886751   0.2305357), wk =   0.0204082
        k(   47) = (   0.2142857  -0.2886751  -0.2305357), wk =   0.0204082
        k(   48) = (   0.2142857  -0.2886751  -0.0768452), wk =   0.0204082
        k(   49) = (   0.2142857  -0.1237179   0.0768452), wk =   0.0204082
        k(   50) = (   0.2142857  -0.1237179   0.2305357), wk =   0.0204082
        k(   51) = (   0.2142857  -0.1237179  -0.2305357), wk =   0.0204082
        k(   52) = (   0.2142857  -0.1237179  -0.0768452), wk =   0.0204082
        k(   53) = (   0.2142857   0.0412393   0.0768452), wk =   0.0204082
        k(   54) = (   0.2142857   0.0412393   0.2305357), wk =   0.0204082
        k(   55) = (   0.2142857   0.0412393  -0.2305357), wk =   0.0204082
        k(   56) = (   0.2142857   0.0412393  -0.0768452), wk =   0.0204082
        k(   57) = (   0.3571429   0.2886751   0.0768452), wk =   0.0204082
        k(   58) = (   0.3571429   0.2886751   0.2305357), wk =   0.0204082
        k(   59) = (   0.3571429   0.2886751  -0.2305357), wk =   0.0204082
        k(   60) = (   0.3571429   0.2886751  -0.0768452), wk =   0.0204082
        k(   61) = (   0.3571429   0.4536324   0.0768452), wk =   0.0204082
        k(   62) = (   0.3571429   0.4536324   0.2305357), wk =   0.0204082
        k(   63) = (   0.3571429   0.4536324  -0.2305357), wk =   0.0204082
        k(   64) = (   0.3571429   0.4536324  -0.0768452), wk =   0.0204082
        k(   65) = (   0.3571429   0.6185896   0.0768452), wk =   0.0204082
        k(   66) = (   0.3571429   0.6185896   0.2305357), wk =   0.0204082
        k(   67) = (   0.3571429   0.6185896  -0.2305357), wk =   0.0204082
        k(   68) = (   0.3571429   0.6185896  -0.0768452), wk =   0.0204082
        k(   69) = (   0.3571429  -0.3711537   0.0768452), wk =   0.0204082
        k(   70) = (   0.3571429  -0.3711537   0.2305357), wk =   0.0204082
        k(   71) = (   0.3571429  -0.3711537  -0.2305357), wk =   0.0204082
        k(   72) = (   0.3571429  -0.3711537  -0.0768452), wk =   0.0204082
        k(   73) = (   0.3571429  -0.2061965   0.0768452), wk =   0.0204082
        k(   74) = (   0.3571429  -0.2061965   0.2305357), wk =   0.0204082
        k(   75) = (   0.3571429  -0.2061965  -0.2305357), wk =   0.0204082
        k(   76) = (   0.3571429  -0.2061965  -0.0768452), wk =   0.0204082
        k(   77) = (   0.3571429  -0.0412393   0.0768452), wk =   0.0204082
        k(   78) = (   0.3571429  -0.0412393   0.2305357), wk =   0.0204082
        k(   79) = (   0.3571429  -0.0412393  -0.2305357), wk =   0.0204082
        k(   80) = (   0.3571429  -0.0412393  -0.0768452), wk =   0.0204082
        k(   81) = (   0.3571429   0.1237179   0.0768452), wk =   0.0204082
        k(   82) = (   0.3571429   0.1237179   0.2305357), wk =   0.0204082
        k(   83) = (   0.3571429   0.1237179  -0.2305357), wk =   0.0204082
        k(   84) = (   0.3571429   0.1237179  -0.0768452), wk =   0.0204082
        k(   85) = (  -0.5000000  -0.2061965   0.0768452), wk =   0.0204082
        k(   86) = (  -0.5000000  -0.2061965   0.2305357), wk =   0.0204082
        k(   87) = (  -0.5000000  -0.2061965  -0.2305357), wk =   0.0204082
        k(   88) = (  -0.5000000  -0.2061965  -0.0768452), wk =   0.0204082
        k(   89) = (  -0.5000000  -0.0412393   0.0768452), wk =   0.0204082
        k(   90) = (  -0.5000000  -0.0412393   0.2305357), wk =   0.0204082
        k(   91) = (  -0.5000000  -0.0412393  -0.2305357), wk =   0.0204082
        k(   92) = (  -0.5000000  -0.0412393  -0.0768452), wk =   0.0204082
        k(   93) = (  -0.5000000   0.1237179   0.0768452), wk =   0.0204082
        k(   94) = (  -0.5000000   0.1237179   0.2305357), wk =   0.0204082
        k(   95) = (  -0.5000000   0.1237179  -0.2305357), wk =   0.0204082
        k(   96) = (  -0.5000000   0.1237179  -0.0768452), wk =   0.0204082
        k(   97) = (  -0.5000000  -0.8660254   0.0768452), wk =   0.0204082
        k(   98) = (  -0.5000000  -0.8660254   0.2305357), wk =   0.0204082

                       cryst. coord.
        k(    1) = (   0.0714286   0.0714286   0.1250000), wk =   0.0204082
        k(    2) = (   0.0714286   0.0714286   0.3750000), wk =   0.0204082
        k(    3) = (   0.0714286   0.0714286  -0.3750000), wk =   0.0204082
        k(    4) = (   0.0714286   0.0714286  -0.1250000), wk =   0.0204082
        k(    5) = (   0.0714286   0.2142857   0.1250000), wk =   0.0204082
        k(    6) = (   0.0714286   0.2142857   0.3750000), wk =   0.0204082
        k(    7) = (   0.0714286   0.2142857  -0.3750000), wk =   0.0204082
        k(    8) = (   0.0714286   0.2142857  -0.1250000), wk =   0.0204082
        k(    9) = (   0.0714286   0.3571429   0.1250000), wk =   0.0204082
        k(   10) = (   0.0714286   0.3571429   0.3750000), wk =   0.0204082
        k(   11) = (   0.0714286   0.3571429  -0.3750000), wk =   0.0204082
        k(   12) = (   0.0714286   0.3571429  -0.1250000), wk =   0.0204082
        k(   13) = (   0.0714286  -0.5000000   0.1250000), wk =   0.0204082
        k(   14) = (   0.0714286  -0.5000000   0.3750000), wk =   0.0204082
        k(   15) = (   0.0714286  -0.5000000  -0.3750000), wk =   0.0204082
        k(   16) = (   0.0714286  -0.5000000  -0.1250000), wk =   0.0204082
        k(   17) = (   0.0714286  -0.3571429   0.1250000), wk =   0.0204082
        k(   18) = (   0.0714286  -0.3571429   0.3750000), wk =   0.0204082
        k(   19) = (   0.0714286  -0.3571429  -0.3750000), wk =   0.0204082
        k(   20) = (   0.0714286  -0.3571429  -0.1250000), wk =   0.0204082
        k(   21) = (   0.0714286  -0.2142857   0.1250000), wk =   0.0204082
        k(   22) = (   0.0714286  -0.2142857   0.3750000), wk =   0.0204082
        k(   23) = (   0.0714286  -0.2142857  -0.3750000), wk =   0.0204082
        k(   24) = (   0.0714286  -0.2142857  -0.1250000), wk =   0.0204082
        k(   25) = (   0.0714286  -0.0714286   0.1250000), wk =   0.0204082
        k(   26) = (   0.0714286  -0.0714286   0.3750000), wk =   0.0204082
        k(   27) = (   0.0714286  -0.0714286  -0.3750000), wk =   0.0204082
        k(   28) = (   0.0714286  -0.0714286  -0.1250000), wk =   0.0204082
        k(   29) = (   0.2142857   0.0714286   0.1250000), wk =   0.0204082
        k(   30) = (   0.2142857   0.0714286   0.3750000), wk =   0.0204082
        k(   31) = (   0.2142857   0.0714286  -0.3750000), wk =   0.0204082
        k(   32) = (   0.2142857   0.0714286  -0.1250000), wk =   0.0204082
        k(   33) = (   0.2142857   0.2142857   0.1250000), wk =   0.0204082
        k(   34) = (   0.2142857   0.2142857   0.3750000), wk =   0.0204082
        k(   35) = (   0.2142857   0.2142857  -0.3750000), wk =   0.0204082
        k(   36) = (   0.2142857   0.2142857  -0.1250000), wk =   0.0204082
        k(   37) = (   0.2142857   0.3571429   0.1250000), wk =   0.0204082
        k(   38) = (   0.2142857   0.3571429   0.3750000), wk =   0.0204082
        k(   39) = (   0.2142857   0.3571429  -0.3750000), wk =   0.0204082
        k(   40) = (   0.2142857   0.3571429  -0.1250000), wk =   0.0204082
        k(   41) = (   0.2142857  -0.5000000   0.1250000), wk =   0.0204082
        k(   42) = (   0.2142857  -0.5000000   0.3750000), wk =   0.0204082
        k(   43) = (   0.2142857  -0.5000000  -0.3750000), wk =   0.0204082
        k(   44) = (   0.2142857  -0.5000000  -0.1250000), wk =   0.0204082
        k(   45) = (   0.2142857  -0.3571429   0.1250000), wk =   0.0204082
        k(   46) = (   0.2142857  -0.3571429   0.3750000), wk =   0.0204082
        k(   47) = (   0.2142857  -0.3571429  -0.3750000), wk =   0.0204082
        k(   48) = (   0.2142857  -0.3571429  -0.1250000), wk =   0.0204082
        k(   49) = (   0.2142857  -0.2142857   0.1250000), wk =   0.0204082
        k(   50) = (   0.2142857  -0.2142857   0.3750000), wk =   0.0204082
        k(   51) = (   0.2142857  -0.2142857  -0.3750000), wk =   0.0204082
        k(   52) = (   0.2142857  -0.2142857  -0.1250000), wk =   0.0204082
        k(   53) = (   0.2142857  -0.0714286   0.1250000), wk =   0.0204082
        k(   54) = (   0.2142857  -0.0714286   0.3750000), wk =   0.0204082
        k(   55) = (   0.2142857  -0.0714286  -0.3750000), wk =   0.0204082
        k(   56) = (   0.2142857  -0.0714286  -0.1250000), wk =   0.0204082
        k(   57) = (   0.3571429   0.0714286   0.1250000), wk =   0.0204082
        k(   58) = (   0.3571429   0.0714286   0.3750000), wk =   0.0204082
        k(   59) = (   0.3571429   0.0714286  -0.3750000), wk =   0.0204082
        k(   60) = (   0.3571429   0.0714286  -0.1250000), wk =   0.0204082
        k(   61) = (   0.3571429   0.2142857   0.1250000), wk =   0.0204082
        k(   62) = (   0.3571429   0.2142857   0.3750000), wk =   0.0204082
        k(   63) = (   0.3571429   0.2142857  -0.3750000), wk =   0.0204082
        k(   64) = (   0.3571429   0.2142857  -0.1250000), wk =   0.0204082
        k(   65) = (   0.3571429   0.3571429   0.1250000), wk =   0.0204082
        k(   66) = (   0.3571429   0.3571429   0.3750000), wk =   0.0204082
        k(   67) = (   0.3571429   0.3571429  -0.3750000), wk =   0.0204082
        k(   68) = (   0.3571429   0.3571429  -0.1250000), wk =   0.0204082
        k(   69) = (   0.3571429  -0.5000000   0.1250000), wk =   0.0204082
        k(   70) = (   0.3571429  -0.5000000   0.3750000), wk =   0.0204082
        k(   71) = (   0.3571429  -0.5000000  -0.3750000), wk =   0.0204082
        k(   72) = (   0.3571429  -0.5000000  -0.1250000), wk =   0.0204082
        k(   73) = (   0.3571429  -0.3571429   0.1250000), wk =   0.0204082
        k(   74) = (   0.3571429  -0.3571429   0.3750000), wk =   0.0204082
        k(   75) = (   0.3571429  -0.3571429  -0.3750000), wk =   0.0204082
        k(   76) = (   0.3571429  -0.3571429  -0.1250000), wk =   0.0204082
        k(   77) = (   0.3571429  -0.2142857   0.1250000), wk =   0.0204082
        k(   78) = (   0.3571429  -0.2142857   0.3750000), wk =   0.0204082
        k(   79) = (   0.3571429  -0.2142857  -0.3750000), wk =   0.0204082
        k(   80) = (   0.3571429  -0.2142857  -0.1250000), wk =   0.0204082
        k(   81) = (   0.3571429  -0.0714286   0.1250000), wk =   0.0204082
        k(   82) = (   0.3571429  -0.0714286   0.3750000), wk =   0.0204082
        k(   83) = (   0.3571429  -0.0714286  -0.3750000), wk =   0.0204082
        k(   84) = (   0.3571429  -0.0714286  -0.1250000), wk =   0.0204082
        k(   85) = (  -0.5000000   0.0714286   0.1250000), wk =   0.0204082
        k(   86) = (  -0.5000000   0.0714286   0.3750000), wk =   0.0204082
        k(   87) = (  -0.5000000   0.0714286  -0.3750000), wk =   0.0204082
        k(   88) = (  -0.5000000   0.0714286  -0.1250000), wk =   0.0204082
        k(   89) = (  -0.5000000   0.2142857   0.1250000), wk =   0.0204082
        k(   90) = (  -0.5000000   0.2142857   0.3750000), wk =   0.0204082
        k(   91) = (  -0.5000000   0.2142857  -0.3750000), wk =   0.0204082
        k(   92) = (  -0.5000000   0.2142857  -0.1250000), wk =   0.0204082
        k(   93) = (  -0.5000000   0.3571429   0.1250000), wk =   0.0204082
        k(   94) = (  -0.5000000   0.3571429   0.3750000), wk =   0.0204082
        k(   95) = (  -0.5000000   0.3571429  -0.3750000), wk =   0.0204082
        k(   96) = (  -0.5000000   0.3571429  -0.1250000), wk =   0.0204082
        k(   97) = (  -0.5000000  -0.5000000   0.1250000), wk =   0.0204082
        k(   98) = (  -0.5000000  -0.5000000   0.3750000), wk =   0.0204082

     Dense  grid:    35591 G-vectors     FFT dimensions: (  40,  40,  60)

     Smooth grid:    19411 G-vectors     FFT dimensions: (  30,  30,  50)

     Dynamical RAM for                 wfc:       0.67 MB

     Dynamical RAM for     wfc (w. buffer):      65.86 MB

     Dynamical RAM for           str. fact:       1.09 MB

     Dynamical RAM for           local pot:       0.00 MB

     Dynamical RAM for          nlocal pot:       1.92 MB

     Dynamical RAM for                qrad:       3.05 MB

     Dynamical RAM for          rho,v,vnew:       3.83 MB

     Dynamical RAM for               rhoin:       1.28 MB

     Dynamical RAM for            rho*nmix:       8.69 MB

     Dynamical RAM for           G-vectors:       2.18 MB

     Dynamical RAM for          h,s,v(r/c):       0.06 MB

     Dynamical RAM for          <psi|beta>:       0.01 MB

     Dynamical RAM for                 psi:       1.33 MB

     Dynamical RAM for                hpsi:       1.33 MB

     Dynamical RAM for                spsi:       1.33 MB

     Dynamical RAM for      wfcinit/wfcrot:       1.94 MB

     Dynamical RAM for           addusdens:     102.10 MB

     Dynamical RAM for          addusforce:     103.46 MB

     Estimated static dynamical RAM per process >      93.18 MB

     Estimated max dynamical RAM per process >     196.64 MB

     Initial potential from superposition of free atoms

     starting charge   35.99427, renormalised to   36.00000
     Starting wfcs are   26 randomized atomic wfcs

     total cpu time spent up to now is       10.0 secs

     Self-consistent Calculation

     iteration #  1     ecut=    60.00 Ry     beta= 0.70
     Davidson diagonalization with overlap
     ethr =  1.00E-02,  avg # of iterations =  1.0

     total cpu time spent up to now is       24.9 secs

     total energy              =    -395.21221994 Ry
     estimated scf accuracy    <       1.04198861 Ry

     iteration #  2     ecut=    60.00 Ry     beta= 0.70
     Davidson diagonalization with overlap
     ethr =  2.89E-03,  avg # of iterations =  4.0

     total cpu time spent up to now is       49.1 secs

     total energy              =    -395.51133820 Ry
     estimated scf accuracy    <       0.97211130 Ry

     iteration #  3     ecut=    60.00 Ry     beta= 0.70
     Davidson diagonalization with overlap
     ethr =  2.70E-03,  avg # of iterations =  2.7

     total cpu time spent up to now is       68.7 secs

     total energy              =    -395.65947221 Ry
     estimated scf accuracy    <       0.02409197 Ry

     iteration #  4     ecut=    60.00 Ry     beta= 0.70
     Davidson diagonalization with overlap
     ethr =  6.69E-05,  avg # of iterations =  4.1

     total cpu time spent up to now is       93.5 secs

     total energy              =    -395.68449024 Ry
     estimated scf accuracy    <       0.04430354 Ry

     iteration #  5     ecut=    60.00 Ry     beta= 0.70
     Davidson diagonalization with overlap
     ethr =  6.69E-05,  avg # of iterations =  2.0

     total cpu time spent up to now is      111.9 secs

     total energy              =    -395.68821085 Ry
     estimated scf accuracy    <       0.01072478 Ry

     iteration #  6     ecut=    60.00 Ry     beta= 0.70
     Davidson diagonalization with overlap
     ethr =  2.98E-05,  avg # of iterations =  1.0

     total cpu time spent up to now is      127.1 secs

     total energy              =    -395.68939521 Ry
     estimated scf accuracy    <       0.01029112 Ry

     iteration #  7     ecut=    60.00 Ry     beta= 0.70
     Davidson diagonalization with overlap
     ethr =  2.86E-05,  avg # of iterations =  1.0

     total cpu time spent up to now is      142.8 secs

     total energy              =    -395.68163859 Ry
     estimated scf accuracy    <       0.01272223 Ry

     iteration #  8     ecut=    60.00 Ry     beta= 0.70
     Davidson diagonalization with overlap
     ethr =  2.86E-05,  avg # of iterations =  4.0

     total cpu time spent up to now is      167.7 secs

     total energy              =    -395.68872066 Ry
     estimated scf accuracy    <       0.00228817 Ry

     iteration #  9     ecut=    60.00 Ry     beta= 0.70
     Davidson diagonalization with overlap
     ethr =  6.36E-06,  avg # of iterations =  4.0

     total cpu time spent up to now is      192.6 secs

     total energy              =    -395.68859243 Ry
     estimated scf accuracy    <       0.01379766 Ry

     iteration # 10     ecut=    60.00 Ry     beta= 0.70
     Davidson diagonalization with overlap
     ethr =  6.36E-06,  avg # of iterations =  1.0

     total cpu time spent up to now is      208.6 secs

     total energy              =    -395.68703410 Ry
     estimated scf accuracy    <       0.01081395 Ry

     iteration # 11     ecut=    60.00 Ry     beta= 0.70
     Davidson diagonalization with overlap
     ethr =  6.36E-06,  avg # of iterations =  2.0

     total cpu time spent up to now is      227.6 secs

     total energy              =    -395.68609801 Ry
     estimated scf accuracy    <       0.00552796 Ry

     iteration # 12     ecut=    60.00 Ry     beta= 0.70
     Davidson diagonalization with overlap
     ethr =  6.36E-06,  avg # of iterations =  2.0

     total cpu time spent up to now is      246.5 secs

     total energy              =    -395.68470748 Ry
     estimated scf accuracy    <       0.00245636 Ry

     iteration # 13     ecut=    60.00 Ry     beta= 0.70
     Davidson diagonalization with overlap
     ethr =  6.36E-06,  avg # of iterations =  4.0

     total cpu time spent up to now is      271.8 secs

     total energy              =    -395.68592726 Ry
     estimated scf accuracy    <       0.00088781 Ry

     iteration # 14     ecut=    60.00 Ry     beta= 0.70
     Davidson diagonalization with overlap
     ethr =  2.47E-06,  avg # of iterations =  1.0

     total cpu time spent up to now is      287.8 secs

     total energy              =    -395.68565823 Ry
     estimated scf accuracy    <       0.00075647 Ry

     iteration # 15     ecut=    60.00 Ry     beta= 0.70
     Davidson diagonalization with overlap
     ethr =  2.10E-06,  avg # of iterations =  2.0

     total cpu time spent up to now is      306.7 secs

     total energy              =    -395.68572648 Ry
     estimated scf accuracy    <       0.00010926 Ry

     iteration # 16     ecut=    60.00 Ry     beta= 0.70
     Davidson diagonalization with overlap
     ethr =  3.03E-07,  avg # of iterations =  2.0

     total cpu time spent up to now is      324.8 secs

     total energy              =    -395.68574159 Ry
     estimated scf accuracy    <       0.00006719 Ry

     iteration # 17     ecut=    60.00 Ry     beta= 0.70
     Davidson diagonalization with overlap
     ethr =  1.87E-07,  avg # of iterations =  1.0

     total cpu time spent up to now is      340.0 secs

     total energy              =    -395.68576485 Ry
     estimated scf accuracy    <       0.00008263 Ry

     iteration # 18     ecut=    60.00 Ry     beta= 0.70
     Davidson diagonalization with overlap
     ethr =  1.87E-07,  avg # of iterations =  1.1

     total cpu time spent up to now is      355.9 secs

     total energy              =    -395.68578929 Ry
     estimated scf accuracy    <       0.00015418 Ry

     iteration # 19     ecut=    60.00 Ry     beta= 0.70
     Davidson diagonalization with overlap
     ethr =  1.87E-07,  avg # of iterations =  2.0

     total cpu time spent up to now is      374.2 secs

     total energy              =    -395.68584803 Ry
     estimated scf accuracy    <       0.00024143 Ry

     iteration # 20     ecut=    60.00 Ry     beta= 0.70
     Davidson diagonalization with overlap
     ethr =  1.87E-07,  avg # of iterations =  2.3

     total cpu time spent up to now is      393.5 secs

     total energy              =    -395.68571186 Ry
     estimated scf accuracy    <       0.00044043 Ry

     iteration # 21     ecut=    60.00 Ry     beta= 0.70
     Davidson diagonalization with overlap
     ethr =  1.87E-07,  avg # of iterations =  3.9

     total cpu time spent up to now is      417.2 secs

     total energy              =    -395.68571580 Ry
     estimated scf accuracy    <       0.00007358 Ry

     iteration # 22     ecut=    60.00 Ry     beta= 0.70
     Davidson diagonalization with overlap
     ethr =  1.87E-07,  avg # of iterations =  2.0

     total cpu time spent up to now is      436.2 secs

     total energy              =    -395.68571909 Ry
     estimated scf accuracy    <       0.00001671 Ry

     iteration # 23     ecut=    60.00 Ry     beta= 0.70
     Davidson diagonalization with overlap
     ethr =  4.64E-08,  avg # of iterations =  2.0

     total cpu time spent up to now is      455.1 secs

     total energy              =    -395.68572009 Ry
     estimated scf accuracy    <       0.00000766 Ry

     iteration # 24     ecut=    60.00 Ry     beta= 0.70
     Davidson diagonalization with overlap
     ethr =  2.13E-08,  avg # of iterations =  1.0

     total cpu time spent up to now is      471.0 secs

     total energy              =    -395.68572129 Ry
     estimated scf accuracy    <       0.00000600 Ry

     iteration # 25     ecut=    60.00 Ry     beta= 0.70
     Davidson diagonalization with overlap
     ethr =  1.67E-08,  avg # of iterations =  1.0

     total cpu time spent up to now is      486.8 secs

     total energy              =    -395.68571773 Ry
     estimated scf accuracy    <       0.00000820 Ry

     iteration # 26     ecut=    60.00 Ry     beta= 0.70
     Davidson diagonalization with overlap
     ethr =  1.67E-08,  avg # of iterations =  3.3

     total cpu time spent up to now is      509.4 secs

     total energy              =    -395.68572013 Ry
     estimated scf accuracy    <       0.00000079 Ry

     iteration # 27     ecut=    60.00 Ry     beta= 0.70
     Davidson diagonalization with overlap
     ethr =  2.20E-09,  avg # of iterations =  4.8

     total cpu time spent up to now is      537.8 secs

     total energy              =    -395.68571613 Ry
     estimated scf accuracy    <       0.00000817 Ry

     iteration # 28     ecut=    60.00 Ry     beta= 0.70
     Davidson diagonalization with overlap
     ethr =  2.20E-09,  avg # of iterations =  5.0

     total cpu time spent up to now is      570.4 secs

     total energy              =    -395.68571913 Ry
     estimated scf accuracy    <       0.00000404 Ry

     iteration # 29     ecut=    60.00 Ry     beta= 0.70
     Davidson diagonalization with overlap
     ethr =  2.20E-09,  avg # of iterations =  3.6

     total cpu time spent up to now is      593.5 secs

     total energy              =    -395.68571914 Ry
     estimated scf accuracy    <       0.00000060 Ry

     iteration # 30     ecut=    60.00 Ry     beta= 0.70
     Davidson diagonalization with overlap
     ethr =  1.67E-09,  avg # of iterations =  2.0

     total cpu time spent up to now is      613.4 secs

     total energy              =    -395.68571921 Ry
     estimated scf accuracy    <       0.00000004 Ry

     iteration # 31     ecut=    60.00 Ry     beta= 0.70
     Davidson diagonalization with overlap
     ethr =  1.12E-10,  avg # of iterations =  4.1

     total cpu time spent up to now is      639.0 secs

     total energy              =    -395.68571923 Ry
     estimated scf accuracy    <       0.00000005 Ry

     iteration # 32     ecut=    60.00 Ry     beta= 0.70
     Davidson diagonalization with overlap
     ethr =  1.12E-10,  avg # of iterations =  2.0

     total cpu time spent up to now is      658.1 secs

     total energy              =    -395.68571924 Ry
     estimated scf accuracy    <          5.6E-09 Ry

     iteration # 33     ecut=    60.00 Ry     beta= 0.70
     Davidson diagonalization with overlap
     ethr =  1.57E-11,  avg # of iterations =  4.0

     total cpu time spent up to now is      683.0 secs

     total energy              =    -395.68571924 Ry
     estimated scf accuracy    <          4.3E-10 Ry

     iteration # 34     ecut=    60.00 Ry     beta= 0.70
     Davidson diagonalization with overlap
     ethr =  1.18E-12,  avg # of iterations =  1.4

     total cpu time spent up to now is      699.6 secs

     total energy              =    -395.68571924 Ry
     estimated scf accuracy    <          2.1E-10 Ry

     iteration # 35     ecut=    60.00 Ry     beta= 0.70
     Davidson diagonalization with overlap
     ethr =  5.86E-13,  avg # of iterations =  3.0

     total cpu time spent up to now is      721.7 secs

     total energy              =    -395.68571924 Ry
     estimated scf accuracy    <          4.3E-11 Ry

     iteration # 36     ecut=    60.00 Ry     beta= 0.70
     Davidson diagonalization with overlap
     ethr =  1.19E-13,  avg # of iterations =  1.0

     total cpu time spent up to now is      736.7 secs

     total energy              =    -395.68571924 Ry
     estimated scf accuracy    <          2.8E-11 Ry

     iteration # 37     ecut=    60.00 Ry     beta= 0.70
     Davidson diagonalization with overlap
     ethr =  1.00E-13,  avg # of iterations =  2.0

     total cpu time spent up to now is      755.6 secs

     total energy              =    -395.68571924 Ry
     estimated scf accuracy    <          3.1E-12 Ry

     iteration # 38     ecut=    60.00 Ry     beta= 0.70
     Davidson diagonalization with overlap
     ethr =  1.00E-13,  avg # of iterations =  1.0

     total cpu time spent up to now is      771.6 secs

     total energy              =    -395.68571924 Ry
     estimated scf accuracy    <          1.3E-12 Ry

     iteration # 39     ecut=    60.00 Ry     beta= 0.70
     Davidson diagonalization with overlap
     ethr =  1.00E-13,  avg # of iterations =  1.0

     total cpu time spent up to now is      787.4 secs

     total energy              =    -395.68571924 Ry
     estimated scf accuracy    <          4.8E-13 Ry

     iteration # 40     ecut=    60.00 Ry     beta= 0.70
     Davidson diagonalization with overlap
     ethr =  1.00E-13,  avg # of iterations =  1.0

     total cpu time spent up to now is      802.5 secs

     total energy              =    -395.68571924 Ry
     estimated scf accuracy    <          9.0E-14 Ry

     iteration # 41     ecut=    60.00 Ry     beta= 0.70
     Davidson diagonalization with overlap
     ethr =  1.00E-13,  avg # of iterations =  1.0

     total cpu time spent up to now is      818.4 secs

     total energy              =    -395.68571924 Ry
     estimated scf accuracy    <          1.1E-13 Ry

     iteration # 42     ecut=    60.00 Ry     beta= 0.70
     Davidson diagonalization with overlap
     ethr =  1.00E-13,  avg # of iterations =  1.0

     total cpu time spent up to now is      834.3 secs

     total energy              =    -395.68571924 Ry
     estimated scf accuracy    <          2.4E-14 Ry

     iteration # 43     ecut=    60.00 Ry     beta= 0.70
     Davidson diagonalization with overlap
     ethr =  1.00E-13,  avg # of iterations =  1.0

     total cpu time spent up to now is      849.3 secs

     total energy              =    -395.68571924 Ry
     estimated scf accuracy    <          2.1E-14 Ry

     iteration # 44     ecut=    60.00 Ry     beta= 0.70
     Davidson diagonalization with overlap
     ethr =  1.00E-13,  avg # of iterations =  1.0

     total cpu time spent up to now is      865.2 secs

     End of self-consistent calculation

          k = 0.0714 0.1237 0.0768 (  2423 PWs)   bands (ev):

    -6.0803  -5.3384  -3.7611  -3.7422  -3.7112  -3.6901  -3.6716  -3.5169
    -3.5106  -3.4428  -3.4144  -2.2129   3.0906   7.7052   8.1125   8.5048
     9.3633   9.4505

     occupation numbers 
     1.0000   1.0000   1.0000   1.0000   1.0000   1.0000   1.0000   1.0000
     1.0000   1.0000   1.0000   1.0000   1.0000   1.0000   1.0000   1.0000
     1.0000   1.0000

          k = 0.0714 0.1237 0.2305 (  2436 PWs)   bands (ev):

    -5.7917  -5.4737  -3.7400  -3.7292  -3.7135  -3.7027  -3.6013  -3.4876
    -3.4703  -3.4452  -3.4239  -2.9808   4.7421   6.7615   8.1124   8.6058
     8.8276   9.1049

     occupation numbers 
     1.0000   1.0000   1.0000   1.0000   1.0000   1.0000   1.0000   1.0000
     1.0000   1.0000   1.0000   1.0000   1.0000   1.0000   1.0000   1.0000
     1.0000   1.0000

          k = 0.0714 0.1237-0.2305 (  2436 PWs)   bands (ev):

    -5.7917  -5.4737  -3.7400  -3.7292  -3.7135  -3.7027  -3.6013  -3.4876
    -3.4703  -3.4452  -3.4239  -2.9808   4.7421   6.7615   8.1124   8.6058
     8.8276   9.1049

     occupation numbers 
     1.0000   1.0000   1.0000   1.0000   1.0000   1.0000   1.0000   1.0000
     1.0000   1.0000   1.0000   1.0000   1.0000   1.0000   1.0000   1.0000
     1.0000   1.0000

          k = 0.0714 0.1237-0.0768 (  2423 PWs)   bands (ev):

    -6.0803  -5.3384  -3.7611  -3.7422  -3.7112  -3.6901  -3.6716  -3.5169
    -3.5106  -3.4428  -3.4144  -2.2129   3.0906   7.7052   8.1125   8.5048
     9.3633   9.4505

     occupation numbers 
     1.0000   1.0000   1.0000   1.0000   1.0000   1.0000   1.0000   1.0000
     1.0000   1.0000   1.0000   1.0000   1.0000   1.0000   1.0000   1.0000
     1.0000   1.0000

          k = 0.0714 0.2887 0.0768 (  2435 PWs)   bands (ev):

    -5.7188  -5.2587  -3.7201  -3.7062  -3.6475  -3.6123  -3.5475  -3.5146
    -3.4898  -3.4299  -3.3633  -1.8903   3.6163   5.8059   6.5277   7.6064
     8.8829   8.9809

     occupation numbers 
     1.0000   1.0000   1.0000   1.0000   1.0000   1.0000   1.0000   1.0000
     1.0000   1.0000   1.0000   1.0000   1.0000   1.0000   1.0000   1.0000
     1.0000   1.0000

          k = 0.0714 0.2887 0.2305 (  2430 PWs)   bands (ev):

    -5.5196  -5.3277  -3.7116  -3.6810  -3.6745  -3.6376  -3.5485  -3.5355
    -3.4643  -3.4373  -3.1451  -2.5841   4.5483   5.5715   6.9042   7.8988
     8.2938   8.5386

     occupation numbers 
     1.0000   1.0000   1.0000   1.0000   1.0000   1.0000   1.0000   1.0000
     1.0000   1.0000   1.0000   1.0000   1.0000   1.0000   1.0000   1.0000
     1.0000   1.0000

          k = 0.0714 0.2887-0.2305 (  2430 PWs)   bands (ev):

    -5.5196  -5.3277  -3.7116  -3.6810  -3.6745  -3.6376  -3.5485  -3.5355
    -3.4643  -3.4373  -3.1451  -2.5841   4.5483   5.5715   6.9042   7.8988
     8.2938   8.5386

     occupation numbers 
     1.0000   1.0000   1.0000   1.0000   1.0000   1.0000   1.0000   1.0000
     1.0000   1.0000   1.0000   1.0000   1.0000   1.0000   1.0000   1.0000
     1.0000   1.0000

          k = 0.0714 0.2887-0.0768 (  2435 PWs)   bands (ev):

    -5.7188  -5.2587  -3.7201  -3.7062  -3.6475  -3.6123  -3.5475  -3.5146
    -3.4898  -3.4299  -3.3633  -1.8903   3.6163   5.8059   6.5277   7.6064
     8.8829   8.9809

     occupation numbers 
     1.0000   1.0000   1.0000   1.0000   1.0000   1.0000   1.0000   1.0000
     1.0000   1.0000   1.0000   1.0000   1.0000   1.0000   1.0000   1.0000
     1.0000   1.0000

          k = 0.0714 0.4536 0.0768 (  2414 PWs)   bands (ev):

    -5.4198  -5.2103  -3.7131  -3.6907  -3.6035  -3.5635  -3.5350  -3.4971
    -3.4455  -3.4043  -2.6954  -1.6241   3.4688   4.6855   5.5130   6.9034
     8.0509   8.5219

     occupation numbers 
     1.0000   1.0000   1.0000   1.0000   1.0000   1.0000   1.0000   1.0000
     1.0000   1.0000   1.0000   1.0000   1.0000   1.0000   1.0000   1.0000
     1.0000   1.0000

          k = 0.0714 0.4536 0.2305 (  2425 PWs)   bands (ev):

    -5.3159  -5.2298  -3.7178  -3.6784  -3.6412  -3.5747  -3.5282  -3.4873
    -3.4366  -3.4230  -2.4760  -2.0395   3.4145   3.9786   6.8553   7.4014
     7.8822   8.2782

     occupation numbers 
     1.0000   1.0000   1.0000   1.0000   1.0000   1.0000   1.0000   1.0000
     1.0000   1.0000   1.0000   1.0000   1.0000   1.0000   1.0000   1.0000
     1.0000   1.0000

          k = 0.0714 0.4536-0.2305 (  2425 PWs)   bands (ev):

    -5.3159  -5.2298  -3.7178  -3.6784  -3.6412  -3.5747  -3.5282  -3.4873
    -3.4366  -3.4230  -2.4760  -2.0395   3.4145   3.9786   6.8553   7.4014
     7.8822   8.2782

     occupation numbers 
     1.0000   1.0000   1.0000   1.0000   1.0000   1.0000   1.0000   1.0000
     1.0000   1.0000   1.0000   1.0000   1.0000   1.0000   1.0000   1.0000
     1.0000   1.0000

          k = 0.0714 0.4536-0.0768 (  2414 PWs)   bands (ev):

    -5.4198  -5.2103  -3.7131  -3.6907  -3.6035  -3.5635  -3.5350  -3.4971
    -3.4455  -3.4043  -2.6954  -1.6241   3.4688   4.6855   5.5130   6.9034
     8.0509   8.5219

     occupation numbers 
     1.0000   1.0000   1.0000   1.0000   1.0000   1.0000   1.0000   1.0000
     1.0000   1.0000   1.0000   1.0000   1.0000   1.0000   1.0000   1.0000
     1.0000   1.0000

          k = 0.0714-0.5361 0.0768 (  2409 PWs)   bands (ev):

    -5.3604  -5.2032  -3.7176  -3.6884  -3.5896  -3.5751  -3.5184  -3.4833
    -3.4318  -3.4000  -2.3082  -1.6964   3.2185   4.3107   5.6957   6.7864
     7.6659   8.4144

     occupation numbers 
     1.0000   1.0000   1.0000   1.0000   1.0000   1.0000   1.0000   1.0000
     1.0000   1.0000   1.0000   1.0000   1.0000   1.0000   1.0000   1.0000
     1.0000   1.0000

          k = 0.0714-0.5361 0.2305 (  2410 PWs)   bands (ev):

    -5.2776  -5.2126  -3.7229  -3.6815  -3.6378  -3.5622  -3.5192  -3.4679
    -3.4277  -3.4182  -2.1682  -1.9102   3.0373   3.5036   6.8859   7.4253
     7.7509   8.2019

     occupation numbers 
     1.0000   1.0000   1.0000   1.0000   1.0000   1.0000   1.0000   1.0000
     1.0000   1.0000   1.0000   1.0000   1.0000   1.0000   1.0000   1.0000
     1.0000   1.0000

          k = 0.0714-0.5361-0.2305 (  2410 PWs)   bands (ev):

    -5.2776  -5.2126  -3.7229  -3.6815  -3.6378  -3.5622  -3.5192  -3.4679
    -3.4277  -3.4182  -2.1682  -1.9102   3.0373   3.5036   6.8859   7.4253
     7.7509   8.2019

     occupation numbers 
     1.0000   1.0000   1.0000   1.0000   1.0000   1.0000   1.0000   1.0000
     1.0000   1.0000   1.0000   1.0000   1.0000   1.0000   1.0000   1.0000
     1.0000   1.0000

          k = 0.0714-0.5361-0.0768 (  2409 PWs)   bands (ev):

    -5.3604  -5.2032  -3.7176  -3.6884  -3.5896  -3.5751  -3.5184  -3.4833
    -3.4318  -3.4000  -2.3082  -1.6964   3.2185   4.3107   5.6957   6.7864
     7.6659   8.4144

     occupation numbers 
     1.0000   1.0000   1.0000   1.0000   1.0000   1.0000   1.0000   1.0000
     1.0000   1.0000   1.0000   1.0000   1.0000   1.0000   1.0000   1.0000
     1.0000   1.0000

          k = 0.0714-0.3712 0.0768 (  2421 PWs)   bands (ev):

    -5.5419  -5.2281  -3.7103  -3.6967  -3.6223  -3.5685  -3.5517  -3.5113
    -3.4682  -3.4111  -3.0929  -1.7113   3.7391   5.0956   5.7810   7.1896
     8.5046   8.7220

     occupation numbers 
     1.0000   1.0000   1.0000   1.0000   1.0000   1.0000   1.0000   1.0000
     1.0000   1.0000   1.0000   1.0000   1.0000   1.0000   1.0000   1.0000
     1.0000   1.0000

          k = 0.0714-0.3712 0.2305 (  2424 PWs)   bands (ev):

    -5.3969  -5.2676  -3.7115  -3.6757  -3.6526  -3.6009  -3.5392  -3.5157
    -3.4511  -3.4308  -2.8442  -2.3016   4.0219   4.7314   6.7742   7.5790
     8.0909   8.3660

     occupation numbers 
     1.0000   1.0000   1.0000   1.0000   1.0000   1.0000   1.0000   1.0000
     1.0000   1.0000   1.0000   1.0000   1.0000   1.0000   1.0000   1.0000
     1.0000   1.0000

          k = 0.0714-0.3712-0.2305 (  2424 PWs)   bands (ev):

    -5.3969  -5.2676  -3.7115  -3.6757  -3.6526  -3.6009  -3.5392  -3.5157
    -3.4511  -3.4308  -2.8442  -2.3016   4.0219   4.7314   6.7742   7.5790
     8.0909   8.3660

     occupation numbers 
     1.0000   1.0000   1.0000   1.0000   1.0000   1.0000   1.0000   1.0000
     1.0000   1.0000   1.0000   1.0000   1.0000   1.0000   1.0000   1.0000
     1.0000   1.0000

          k = 0.0714-0.3712-0.0768 (  2421 PWs)   bands (ev):

    -5.5419  -5.2281  -3.7103  -3.6967  -3.6223  -3.5685  -3.5517  -3.5113
    -3.4682  -3.4111  -3.0929  -1.7113   3.7391   5.0956   5.7810   7.1896
     8.5046   8.7220

     occupation numbers 
     1.0000   1.0000   1.0000   1.0000   1.0000   1.0000   1.0000   1.0000
     1.0000   1.0000   1.0000   1.0000   1.0000   1.0000   1.0000   1.0000
     1.0000   1.0000

          k = 0.0714-0.2062 0.0768 (  2431 PWs)   bands (ev):

    -5.9150  -5.2990  -3.7405  -3.7226  -3.6746  -3.6587  -3.6052  -3.5225
    -3.5083  -3.4620  -3.4090  -2.0733   3.3295   6.7889   7.3442   8.0847
     9.1710   9.2334

     occupation numbers 
     1.0000   1.0000   1.0000   1.0000   1.0000   1.0000   1.0000   1.0000
     1.0000   1.0000   1.0000   1.0000   1.0000   1.0000   1.0000   1.0000
     1.0000   1.0000

          k = 0.0714-0.2062 0.2305 (  2432 PWs)   bands (ev):

    -5.6638  -5.4028  -3.7238  -3.7043  -3.6946  -3.6742  -3.5766  -3.5168
    -3.4708  -3.4411  -3.3349  -2.8172   4.7493   6.3115   7.4230   8.2494
     8.5185   8.8275

     occupation numbers 
     1.0000   1.0000   1.0000   1.0000   1.0000   1.0000   1.0000   1.0000
     1.0000   1.0000   1.0000   1.0000   1.0000   1.0000   1.0000   1.0000
     1.0000   1.0000

          k = 0.0714-0.2062-0.2305 (  2432 PWs)   bands (ev):

    -5.6638  -5.4028  -3.7238  -3.7043  -3.6946  -3.6742  -3.5766  -3.5168
    -3.4708  -3.4411  -3.3349  -2.8172   4.7493   6.3115   7.4230   8.2494
     8.5185   8.8275

     occupation numbers 
     1.0000   1.0000   1.0000   1.0000   1.0000   1.0000   1.0000   1.0000
     1.0000   1.0000   1.0000   1.0000   1.0000   1.0000   1.0000   1.0000
     1.0000   1.0000

          k = 0.0714-0.2062-0.0768 (  2431 PWs)   bands (ev):

    -5.9150  -5.2990  -3.7405  -3.7226  -3.6746  -3.6587  -3.6052  -3.5225
    -3.5083  -3.4620  -3.4090  -2.0733   3.3295   6.7889   7.3442   8.0847
     9.1710   9.2334

     occupation numbers 
     1.0000   1.0000   1.0000   1.0000   1.0000   1.0000   1.0000   1.0000
     1.0000   1.0000   1.0000   1.0000   1.0000   1.0000   1.0000   1.0000
     1.0000   1.0000

          k = 0.0714-0.0412 0.0768 (  2435 PWs)   bands (ev):

    -6.1734  -5.3631  -3.7712  -3.7553  -3.7429  -3.6999  -3.6954  -3.5121
    -3.5095  -3.4270  -3.4165  -2.2877   2.9619   8.2826   8.5562   8.8260
     9.4837   9.5793

     occupation numbers 
     1.0000   1.0000   1.0000   1.0000   1.0000   1.0000   1.0000   1.0000
     1.0000   1.0000   1.0000   1.0000   1.0000   1.0000   1.0000   1.0000
     1.0000   1.0000

          k = 0.0714-0.0412 0.2305 (  2435 PWs)   bands (ev):

    -5.8661  -5.5169  -3.7490  -3.7446  -3.7241  -3.7196  -3.6168  -3.4760
    -3.4654  -3.4539  -3.4378  -3.0689   4.7038   6.9288   8.6108   8.8432
     9.1001   9.2667

     occupation numbers 
     1.0000   1.0000   1.0000   1.0000   1.0000   1.0000   1.0000   1.0000
     1.0000   1.0000   1.0000   1.0000   1.0000   1.0000   1.0000   1.0000
     1.0000   1.0000

          k = 0.0714-0.0412-0.2305 (  2435 PWs)   bands (ev):

    -5.8661  -5.5169  -3.7490  -3.7446  -3.7241  -3.7196  -3.6168  -3.4760
    -3.4654  -3.4539  -3.4378  -3.0689   4.7038   6.9288   8.6108   8.8432
     9.1001   9.2667

     occupation numbers 
     1.0000   1.0000   1.0000   1.0000   1.0000   1.0000   1.0000   1.0000
     1.0000   1.0000   1.0000   1.0000   1.0000   1.0000   1.0000   1.0000
     1.0000   1.0000

          k = 0.0714-0.0412-0.0768 (  2435 PWs)   bands (ev):

    -6.1734  -5.3631  -3.7712  -3.7553  -3.7429  -3.6999  -3.6954  -3.5121
    -3.5095  -3.4270  -3.4165  -2.2877   2.9619   8.2826   8.5562   8.8260
     9.4837   9.5793

     occupation numbers 
     1.0000   1.0000   1.0000   1.0000   1.0000   1.0000   1.0000   1.0000
     1.0000   1.0000   1.0000   1.0000   1.0000   1.0000   1.0000   1.0000
     1.0000   1.0000

          k = 0.2143 0.2062 0.0768 (  2435 PWs)   bands (ev):

    -5.7188  -5.2587  -3.7201  -3.7062  -3.6475  -3.6123  -3.5475  -3.5146
    -3.4898  -3.4299  -3.3633  -1.8903   3.6163   5.8059   6.5277   7.6064
     8.8829   8.9809

     occupation numbers 
     1.0000   1.0000   1.0000   1.0000   1.0000   1.0000   1.0000   1.0000
     1.0000   1.0000   1.0000   1.0000   1.0000   1.0000   1.0000   1.0000
     1.0000   1.0000

          k = 0.2143 0.2062 0.2305 (  2430 PWs)   bands (ev):

    -5.5196  -5.3277  -3.7116  -3.6810  -3.6745  -3.6376  -3.5485  -3.5355
    -3.4643  -3.4373  -3.1451  -2.5841   4.5483   5.5715   6.9042   7.8988
     8.2938   8.5386

     occupation numbers 
     1.0000   1.0000   1.0000   1.0000   1.0000   1.0000   1.0000   1.0000
     1.0000   1.0000   1.0000   1.0000   1.0000   1.0000   1.0000   1.0000
     1.0000   1.0000

          k = 0.2143 0.2062-0.2305 (  2430 PWs)   bands (ev):

    -5.5196  -5.3277  -3.7116  -3.6810  -3.6745  -3.6376  -3.5485  -3.5355
    -3.4643  -3.4373  -3.1451  -2.5841   4.5483   5.5715   6.9042   7.8988
     8.2938   8.5386

     occupation numbers 
     1.0000   1.0000   1.0000   1.0000   1.0000   1.0000   1.0000   1.0000
     1.0000   1.0000   1.0000   1.0000   1.0000   1.0000   1.0000   1.0000
     1.0000   1.0000

          k = 0.2143 0.2062-0.0768 (  2435 PWs)   bands (ev):

    -5.7188  -5.2587  -3.7201  -3.7062  -3.6475  -3.6123  -3.5475  -3.5146
    -3.4898  -3.4299  -3.3633  -1.8903   3.6163   5.8059   6.5277   7.6064
     8.8829   8.9809

     occupation numbers 
     1.0000   1.0000   1.0000   1.0000   1.0000   1.0000   1.0000   1.0000
     1.0000   1.0000   1.0000   1.0000   1.0000   1.0000   1.0000   1.0000
     1.0000   1.0000

          k = 0.2143 0.3712 0.0768 (  2422 PWs)   bands (ev):

    -5.4435  -5.2154  -3.7255  -3.6637  -3.6001  -3.5837  -3.5347  -3.5156
    -3.4536  -3.4335  -2.8346  -1.5913   3.8447   5.0117   5.6098   6.3517
     7.9552   8.3120

     occupation numbers 
     1.0000   1.0000   1.0000   1.0000   1.0000   1.0000   1.0000   1.0000
     1.0000   1.0000   1.0000   1.0000   1.0000   1.0000   1.0000   1.0000
     1.0000   1.0000

          k = 0.2143 0.3712 0.2305 (  2426 PWs)   bands (ev):

    -5.3304  -5.2370  -3.6806  -3.6762  -3.6361  -3.6088  -3.5435  -3.5260
    -3.4438  -3.4346  -2.5909  -2.0930   3.9057   4.4556   6.5610   7.0296
     7.3680   8.3589

     occupation numbers 
     1.0000   1.0000   1.0000   1.0000   1.0000   1.0000   1.0000   1.0000
     1.0000   1.0000   1.0000   1.0000   1.0000   1.0000   1.0000   1.0000
     1.0000   1.0000

          k = 0.2143 0.3712-0.2305 (  2426 PWs)   bands (ev):

    -5.3304  -5.2370  -3.6806  -3.6762  -3.6361  -3.6088  -3.5435  -3.5260
    -3.4438  -3.4346  -2.5909  -2.0930   3.9057   4.4556   6.5610   7.0296
     7.3680   8.3589

     occupation numbers 
     1.0000   1.0000   1.0000   1.0000   1.0000   1.0000   1.0000   1.0000
     1.0000   1.0000   1.0000   1.0000   1.0000   1.0000   1.0000   1.0000
     1.0000   1.0000

          k = 0.2143 0.3712-0.0768 (  2422 PWs)   bands (ev):

    -5.4435  -5.2154  -3.7255  -3.6637  -3.6001  -3.5837  -3.5347  -3.5156
    -3.4536  -3.4335  -2.8346  -1.5913   3.8447   5.0117   5.6098   6.3517
     7.9552   8.3120

     occupation numbers 
     1.0000   1.0000   1.0000   1.0000   1.0000   1.0000   1.0000   1.0000
     1.0000   1.0000   1.0000   1.0000   1.0000   1.0000   1.0000   1.0000
     1.0000   1.0000

          k = 0.2143 0.5361 0.0768 (  2415 PWs)   bands (ev):

    -5.2979  -5.2088  -3.7443  -3.6379  -3.5747  -3.5427  -3.5365  -3.4968
    -3.4582  -3.4320  -2.0841  -1.6005   3.6282   4.3582   5.2446   6.3408
     7.2941   7.5201

     occupation numbers 
     1.0000   1.0000   1.0000   1.0000   1.0000   1.0000   1.0000   1.0000
     1.0000   1.0000   1.0000   1.0000   1.0000   1.0000   1.0000   1.0000
     1.0000   1.0000

          k = 0.2143 0.5361 0.2305 (  2405 PWs)   bands (ev):

    -5.2375  -5.2009  -3.6843  -3.6595  -3.6449  -3.5765  -3.5122  -3.4911
    -3.4540  -3.4454  -1.9591  -1.7540   3.3515   3.6629   5.6885   6.5457
     7.6326   8.1912

     occupation numbers 
     1.0000   1.0000   1.0000   1.0000   1.0000   1.0000   1.0000   1.0000
     1.0000   1.0000   1.0000   1.0000   1.0000   1.0000   1.0000   1.0000
     1.0000   1.0000

          k = 0.2143 0.5361-0.2305 (  2405 PWs)   bands (ev):

    -5.2375  -5.2009  -3.6843  -3.6595  -3.6449  -3.5765  -3.5122  -3.4911
    -3.4540  -3.4454  -1.9591  -1.7540   3.3515   3.6629   5.6885   6.5457
     7.6326   8.1912

     occupation numbers 
     1.0000   1.0000   1.0000   1.0000   1.0000   1.0000   1.0000   1.0000
     1.0000   1.0000   1.0000   1.0000   1.0000   1.0000   1.0000   1.0000
     1.0000   1.0000

          k = 0.2143 0.5361-0.0768 (  2415 PWs)   bands (ev):

    -5.2979  -5.2088  -3.7443  -3.6379  -3.5747  -3.5427  -3.5365  -3.4968
    -3.4582  -3.4320  -2.0841  -1.6005   3.6282   4.3582   5.2446   6.3408
     7.2941   7.5201

     occupation numbers 
     1.0000   1.0000   1.0000   1.0000   1.0000   1.0000   1.0000   1.0000
     1.0000   1.0000   1.0000   1.0000   1.0000   1.0000   1.0000   1.0000
     1.0000   1.0000

          k = 0.2143-0.4536 0.0768 (  2415 PWs)   bands (ev):

    -5.3490  -5.2078  -3.7374  -3.6447  -3.5837  -3.5601  -3.5332  -3.5125
    -3.4498  -3.4330  -2.4413  -1.5296   3.7584   4.5248   5.6629   5.9664
     7.5474   7.8903

     occupation numbers 
     1.0000   1.0000   1.0000   1.0000   1.0000   1.0000   1.0000   1.0000
     1.0000   1.0000   1.0000   1.0000   1.0000   1.0000   1.0000   1.0000
     1.0000   1.0000

          k = 0.2143-0.4536 0.2305 (  2420 PWs)   bands (ev):

    -5.2692  -5.2115  -3.6812  -3.6692  -3.6355  -3.5872  -3.5285  -3.5134
    -3.4479  -3.4340  -2.2369  -1.8605   3.5647   3.9643   6.0005   6.7854
     7.4047   8.2958

     occupation numbers 
     1.0000   1.0000   1.0000   1.0000   1.0000   1.0000   1.0000   1.0000
     1.0000   1.0000   1.0000   1.0000   1.0000   1.0000   1.0000   1.0000
     1.0000   1.0000

          k = 0.2143-0.4536-0.2305 (  2420 PWs)   bands (ev):

    -5.2692  -5.2115  -3.6812  -3.6692  -3.6355  -3.5872  -3.5285  -3.5134
    -3.4479  -3.4340  -2.2369  -1.8605   3.5647   3.9643   6.0005   6.7854
     7.4047   8.2958

     occupation numbers 
     1.0000   1.0000   1.0000   1.0000   1.0000   1.0000   1.0000   1.0000
     1.0000   1.0000   1.0000   1.0000   1.0000   1.0000   1.0000   1.0000
     1.0000   1.0000

          k = 0.2143-0.4536-0.0768 (  2415 PWs)   bands (ev):

    -5.3490  -5.2078  -3.7374  -3.6447  -3.5837  -3.5601  -3.5332  -3.5125
    -3.4498  -3.4330  -2.4413  -1.5296   3.7584   4.5248   5.6629   5.9664
     7.5474   7.8903

     occupation numbers 
     1.0000   1.0000   1.0000   1.0000   1.0000   1.0000   1.0000   1.0000
     1.0000   1.0000   1.0000   1.0000   1.0000   1.0000   1.0000   1.0000
     1.0000   1.0000

          k = 0.2143-0.2887 0.0768 (  2422 PWs)   bands (ev):

    -5.5739  -5.2336  -3.7128  -3.6929  -3.6236  -3.5988  -3.5421  -3.5108
    -3.4689  -3.4314  -3.1576  -1.7357   3.7922   5.4751   5.8225   7.0341
     8.4688   8.6626

     occupation numbers 
     1.0000   1.0000   1.0000   1.0000   1.0000   1.0000   1.0000   1.0000
     1.0000   1.0000   1.0000   1.0000   1.0000   1.0000   1.0000   1.0000
     1.0000   1.0000

          k = 0.2143-0.2887 0.2305 (  2430 PWs)   bands (ev):

    -5.4182  -5.2778  -3.6954  -3.6748  -3.6542  -3.6252  -3.5449  -3.5338
    -3.4484  -3.4404  -2.9116  -2.3580   4.2649   5.0203   6.8773   7.2777
     7.9096   8.3795

     occupation numbers 
     1.0000   1.0000   1.0000   1.0000   1.0000   1.0000   1.0000   1.0000
     1.0000   1.0000   1.0000   1.0000   1.0000   1.0000   1.0000   1.0000
     1.0000   1.0000

          k = 0.2143-0.2887-0.2305 (  2430 PWs)   bands (ev):

    -5.4182  -5.2778  -3.6954  -3.6748  -3.6542  -3.6252  -3.5449  -3.5338
    -3.4484  -3.4404  -2.9116  -2.3580   4.2649   5.0203   6.8773   7.2777
     7.9096   8.3795

     occupation numbers 
     1.0000   1.0000   1.0000   1.0000   1.0000   1.0000   1.0000   1.0000
     1.0000   1.0000   1.0000   1.0000   1.0000   1.0000   1.0000   1.0000
     1.0000   1.0000

          k = 0.2143-0.2887-0.0768 (  2422 PWs)   bands (ev):

    -5.5739  -5.2336  -3.7128  -3.6929  -3.6236  -3.5988  -3.5421  -3.5108
    -3.4689  -3.4314  -3.1576  -1.7357   3.7922   5.4751   5.8225   7.0341
     8.4688   8.6626

     occupation numbers 
     1.0000   1.0000   1.0000   1.0000   1.0000   1.0000   1.0000   1.0000
     1.0000   1.0000   1.0000   1.0000   1.0000   1.0000   1.0000   1.0000
     1.0000   1.0000

          k = 0.2143-0.1237 0.0768 (  2422 PWs)   bands (ev):

    -5.8434  -5.2835  -3.7357  -3.7124  -3.6671  -3.6272  -3.5808  -3.5289
    -3.5024  -3.4512  -3.4102  -2.0097   3.4351   6.2957   7.1437   7.9193
     9.0673   9.2318

     occupation numbers 
     1.0000   1.0000   1.0000   1.0000   1.0000   1.0000   1.0000   1.0000
     1.0000   1.0000   1.0000   1.0000   1.0000   1.0000   1.0000   1.0000
     1.0000   1.0000

          k = 0.2143-0.1237 0.2305 (  2428 PWs)   bands (ev):

    -5.6103  -5.3744  -3.7213  -3.6918  -3.6907  -3.6553  -3.5653  -3.5247
    -3.4735  -3.4354  -3.2803  -2.7396   4.6999   6.0341   7.1344   8.2744
     8.3421   8.8151

     occupation numbers 
     1.0000   1.0000   1.0000   1.0000   1.0000   1.0000   1.0000   1.0000
     1.0000   1.0000   1.0000   1.0000   1.0000   1.0000   1.0000   1.0000
     1.0000   1.0000

          k = 0.2143-0.1237-0.2305 (  2428 PWs)   bands (ev):

    -5.6103  -5.3744  -3.7213  -3.6918  -3.6907  -3.6553  -3.5653  -3.5247
    -3.4735  -3.4354  -3.2803  -2.7396   4.6999   6.0341   7.1344   8.2744
     8.3421   8.8151

     occupation numbers 
     1.0000   1.0000   1.0000   1.0000   1.0000   1.0000   1.0000   1.0000
     1.0000   1.0000   1.0000   1.0000   1.0000   1.0000   1.0000   1.0000
     1.0000   1.0000

          k = 0.2143-0.1237-0.0768 (  2422 PWs)   bands (ev):

    -5.8434  -5.2835  -3.7357  -3.7124  -3.6671  -3.6272  -3.5808  -3.5289
    -3.5024  -3.4512  -3.4102  -2.0097   3.4351   6.2957   7.1437   7.9193
     9.0673   9.2318

     occupation numbers 
     1.0000   1.0000   1.0000   1.0000   1.0000   1.0000   1.0000   1.0000
     1.0000   1.0000   1.0000   1.0000   1.0000   1.0000   1.0000   1.0000
     1.0000   1.0000

          k = 0.2143 0.0412 0.0768 (  2431 PWs)   bands (ev):

    -5.9150  -5.2990  -3.7405  -3.7226  -3.6746  -3.6587  -3.6052  -3.5225
    -3.5083  -3.4620  -3.4090  -2.0733   3.3295   6.7889   7.3442   8.0847
     9.1710   9.2334

     occupation numbers 
     1.0000   1.0000   1.0000   1.0000   1.0000   1.0000   1.0000   1.0000
     1.0000   1.0000   1.0000   1.0000   1.0000   1.0000   1.0000   1.0000
     1.0000   1.0000

          k = 0.2143 0.0412 0.2305 (  2432 PWs)   bands (ev):

    -5.6638  -5.4028  -3.7238  -3.7043  -3.6946  -3.6742  -3.5766  -3.5168
    -3.4708  -3.4411  -3.3349  -2.8172   4.7493   6.3115   7.4230   8.2494
     8.5185   8.8275

     occupation numbers 
     1.0000   1.0000   1.0000   1.0000   1.0000   1.0000   1.0000   1.0000
     1.0000   1.0000   1.0000   1.0000   1.0000   1.0000   1.0000   1.0000
     1.0000   1.0000

          k = 0.2143 0.0412-0.2305 (  2432 PWs)   bands (ev):

    -5.6638  -5.4028  -3.7238  -3.7043  -3.6946  -3.6742  -3.5766  -3.5168
    -3.4708  -3.4411  -3.3349  -2.8172   4.7493   6.3115   7.4230   8.2494
     8.5185   8.8275

     occupation numbers 
     1.0000   1.0000   1.0000   1.0000   1.0000   1.0000   1.0000   1.0000
     1.0000   1.0000   1.0000   1.0000   1.0000   1.0000   1.0000   1.0000
     1.0000   1.0000

          k = 0.2143 0.0412-0.0768 (  2431 PWs)   bands (ev):

    -5.9150  -5.2990  -3.7405  -3.7226  -3.6746  -3.6587  -3.6052  -3.5225
    -3.5083  -3.4620  -3.4090  -2.0733   3.3295   6.7889   7.3442   8.0847
     9.1710   9.2334

     occupation numbers 
     1.0000   1.0000   1.0000   1.0000   1.0000   1.0000   1.0000   1.0000
     1.0000   1.0000   1.0000   1.0000   1.0000   1.0000   1.0000   1.0000
     1.0000   1.0000

          k = 0.3571 0.2887 0.0768 (  2414 PWs)   bands (ev):

    -5.4198  -5.2103  -3.7131  -3.6907  -3.6035  -3.5635  -3.5350  -3.4971
    -3.4455  -3.4043  -2.6954  -1.6241   3.4688   4.6855   5.5130   6.9034
     8.0509   8.5219

     occupation numbers 
     1.0000   1.0000   1.0000   1.0000   1.0000   1.0000   1.0000   1.0000
     1.0000   1.0000   1.0000   1.0000   1.0000   1.0000   1.0000   1.0000
     1.0000   1.0000

          k = 0.3571 0.2887 0.2305 (  2425 PWs)   bands (ev):

    -5.3159  -5.2298  -3.7178  -3.6784  -3.6412  -3.5747  -3.5282  -3.4873
    -3.4366  -3.4230  -2.4760  -2.0395   3.4145   3.9786   6.8553   7.4014
     7.8822   8.2782

     occupation numbers 
     1.0000   1.0000   1.0000   1.0000   1.0000   1.0000   1.0000   1.0000
     1.0000   1.0000   1.0000   1.0000   1.0000   1.0000   1.0000   1.0000
     1.0000   1.0000

          k = 0.3571 0.2887-0.2305 (  2425 PWs)   bands (ev):

    -5.3159  -5.2298  -3.7178  -3.6784  -3.6412  -3.5747  -3.5282  -3.4873
    -3.4366  -3.4230  -2.4760  -2.0395   3.4145   3.9786   6.8553   7.4014
     7.8822   8.2782

     occupation numbers 
     1.0000   1.0000   1.0000   1.0000   1.0000   1.0000   1.0000   1.0000
     1.0000   1.0000   1.0000   1.0000   1.0000   1.0000   1.0000   1.0000
     1.0000   1.0000

          k = 0.3571 0.2887-0.0768 (  2414 PWs)   bands (ev):

    -5.4198  -5.2103  -3.7131  -3.6907  -3.6035  -3.5635  -3.5350  -3.4971
    -3.4455  -3.4043  -2.6954  -1.6241   3.4688   4.6855   5.5130   6.9034
     8.0509   8.5219

     occupation numbers 
     1.0000   1.0000   1.0000   1.0000   1.0000   1.0000   1.0000   1.0000
     1.0000   1.0000   1.0000   1.0000   1.0000   1.0000   1.0000   1.0000
     1.0000   1.0000

          k = 0.3571 0.4536 0.0768 (  2415 PWs)   bands (ev):

    -5.2979  -5.2088  -3.7443  -3.6379  -3.5747  -3.5427  -3.5365  -3.4968
    -3.4582  -3.4320  -2.0841  -1.6005   3.6282   4.3582   5.2446   6.3408
     7.2941   7.5201

     occupation numbers 
     1.0000   1.0000   1.0000   1.0000   1.0000   1.0000   1.0000   1.0000
     1.0000   1.0000   1.0000   1.0000   1.0000   1.0000   1.0000   1.0000
     1.0000   1.0000

          k = 0.3571 0.4536 0.2305 (  2405 PWs)   bands (ev):

    -5.2375  -5.2009  -3.6843  -3.6595  -3.6449  -3.5765  -3.5122  -3.4911
    -3.4540  -3.4454  -1.9591  -1.7540   3.3515   3.6629   5.6885   6.5457
     7.6326   8.1912

     occupation numbers 
     1.0000   1.0000   1.0000   1.0000   1.0000   1.0000   1.0000   1.0000
     1.0000   1.0000   1.0000   1.0000   1.0000   1.0000   1.0000   1.0000
     1.0000   1.0000

          k = 0.3571 0.4536-0.2305 (  2405 PWs)   bands (ev):

    -5.2375  -5.2009  -3.6843  -3.6595  -3.6449  -3.5765  -3.5122  -3.4911
    -3.4540  -3.4454  -1.9591  -1.7540   3.3515   3.6629   5.6885   6.5457
     7.6326   8.1912

     occupation numbers 
     1.0000   1.0000   1.0000   1.0000   1.0000   1.0000   1.0000   1.0000
     1.0000   1.0000   1.0000   1.0000   1.0000   1.0000   1.0000   1.0000
     1.0000   1.0000

          k = 0.3571 0.4536-0.0768 (  2415 PWs)   bands (ev):

    -5.2979  -5.2088  -3.7443  -3.6379  -3.5747  -3.5427  -3.5365  -3.4968
    -3.4582  -3.4320  -2.0841  -1.6005   3.6282   4.3582   5.2446   6.3408
     7.2941   7.5201

     occupation numbers 
     1.0000   1.0000   1.0000   1.0000   1.0000   1.0000   1.0000   1.0000
     1.0000   1.0000   1.0000   1.0000   1.0000   1.0000   1.0000   1.0000
     1.0000   1.0000

          k = 0.3571 0.6186 0.0768 (  2414 PWs)   bands (ev):

    -5.2561  -5.2224  -3.7555  -3.6006  -3.5740  -3.5448  -3.5222  -3.5025
    -3.4783  -3.4430  -1.8472  -1.6549   3.9577   4.2950   4.6566   6.6883
     6.9129   7.1610

     occupation numbers 
     1.0000   1.0000   1.0000   1.0000   1.0000   1.0000   1.0000   1.0000
     1.0000   1.0000   1.0000   1.0000   1.0000   1.0000   1.0000   1.0000
     1.0000   1.0000

          k = 0.3571 0.6186 0.2305 (  2406 PWs)   bands (ev):

    -5.2137  -5.1998  -3.6822  -3.6450  -3.6370  -3.5798  -3.4986  -3.4914
    -3.4696  -3.4661  -1.7872  -1.7049   3.5274   3.6557   5.1620   6.0876
     7.8484   8.0725

     occupation numbers 
     1.0000   1.0000   1.0000   1.0000   1.0000   1.0000   1.0000   1.0000
     1.0000   1.0000   1.0000   1.0000   1.0000   1.0000   1.0000   1.0000
     1.0000   1.0000

          k = 0.3571 0.6186-0.2305 (  2406 PWs)   bands (ev):

    -5.2137  -5.1998  -3.6822  -3.6450  -3.6370  -3.5798  -3.4986  -3.4914
    -3.4696  -3.4661  -1.7872  -1.7049   3.5274   3.6557   5.1620   6.0876
     7.8484   8.0725

     occupation numbers 
     1.0000   1.0000   1.0000   1.0000   1.0000   1.0000   1.0000   1.0000
     1.0000   1.0000   1.0000   1.0000   1.0000   1.0000   1.0000   1.0000
     1.0000   1.0000

          k = 0.3571 0.6186-0.0768 (  2414 PWs)   bands (ev):

    -5.2561  -5.2224  -3.7555  -3.6006  -3.5740  -3.5448  -3.5222  -3.5025
    -3.4783  -3.4430  -1.8472  -1.6549   3.9577   4.2950   4.6566   6.6883
     6.9129   7.1610

     occupation numbers 
     1.0000   1.0000   1.0000   1.0000   1.0000   1.0000   1.0000   1.0000
     1.0000   1.0000   1.0000   1.0000   1.0000   1.0000   1.0000   1.0000
     1.0000   1.0000

          k = 0.3571-0.3712 0.0768 (  2415 PWs)   bands (ev):

    -5.3542  -5.2055  -3.7258  -3.6737  -3.5868  -3.5558  -3.5333  -3.4956
    -3.4442  -3.4167  -2.3910  -1.5948   3.4602   4.4771   5.6485   6.3324
     7.7500   7.9884

     occupation numbers 
     1.0000   1.0000   1.0000   1.0000   1.0000   1.0000   1.0000   1.0000
     1.0000   1.0000   1.0000   1.0000   1.0000   1.0000   1.0000   1.0000
     1.0000   1.0000

          k = 0.3571-0.3712 0.2305 (  2418 PWs)   bands (ev):

    -5.2730  -5.2119  -3.7018  -3.6692  -3.6467  -3.5736  -3.5214  -3.4886
    -3.4391  -3.4300  -2.2103  -1.8788   3.2923   3.7467   6.4028   7.2017
     7.4389   8.2612

     occupation numbers 
     1.0000   1.0000   1.0000   1.0000   1.0000   1.0000   1.0000   1.0000
     1.0000   1.0000   1.0000   1.0000   1.0000   1.0000   1.0000   1.0000
     1.0000   1.0000

          k = 0.3571-0.3712-0.2305 (  2418 PWs)   bands (ev):

    -5.2730  -5.2119  -3.7018  -3.6692  -3.6467  -3.5736  -3.5214  -3.4886
    -3.4391  -3.4300  -2.2103  -1.8788   3.2923   3.7467   6.4028   7.2017
     7.4389   8.2612

     occupation numbers 
     1.0000   1.0000   1.0000   1.0000   1.0000   1.0000   1.0000   1.0000
     1.0000   1.0000   1.0000   1.0000   1.0000   1.0000   1.0000   1.0000
     1.0000   1.0000

          k = 0.3571-0.3712-0.0768 (  2415 PWs)   bands (ev):

    -5.3542  -5.2055  -3.7258  -3.6737  -3.5868  -3.5558  -3.5333  -3.4956
    -3.4442  -3.4167  -2.3910  -1.5948   3.4602   4.4771   5.6485   6.3324
     7.7500   7.9884

     occupation numbers 
     1.0000   1.0000   1.0000   1.0000   1.0000   1.0000   1.0000   1.0000
     1.0000   1.0000   1.0000   1.0000   1.0000   1.0000   1.0000   1.0000
     1.0000   1.0000

          k = 0.3571-0.2062 0.0768 (  2417 PWs)   bands (ev):

    -5.4863  -5.2192  -3.7162  -3.6869  -3.6180  -3.5618  -3.5455  -3.5033
    -3.4578  -3.4005  -2.9400  -1.6693   3.6032   4.8795   5.5398   7.2547
     8.2941   8.7972

     occupation numbers 
     1.0000   1.0000   1.0000   1.0000   1.0000   1.0000   1.0000   1.0000
     1.0000   1.0000   1.0000   1.0000   1.0000   1.0000   1.0000   1.0000
     1.0000   1.0000

          k = 0.3571-0.2062 0.2305 (  2424 PWs)   bands (ev):

    -5.3600  -5.2500  -3.7214  -3.6802  -3.6430  -3.5830  -3.5338  -3.4946
    -3.4460  -3.4232  -2.6983  -2.1910   3.6880   4.3340   6.8110   7.6630
     8.1871   8.2960

     occupation numbers 
     1.0000   1.0000   1.0000   1.0000   1.0000   1.0000   1.0000   1.0000
     1.0000   1.0000   1.0000   1.0000   1.0000   1.0000   1.0000   1.0000
     1.0000   1.0000

          k = 0.3571-0.2062-0.2305 (  2424 PWs)   bands (ev):

    -5.3600  -5.2500  -3.7214  -3.6802  -3.6430  -3.5830  -3.5338  -3.4946
    -3.4460  -3.4232  -2.6983  -2.1910   3.6880   4.3340   6.8110   7.6630
     8.1871   8.2960

     occupation numbers 
     1.0000   1.0000   1.0000   1.0000   1.0000   1.0000   1.0000   1.0000
     1.0000   1.0000   1.0000   1.0000   1.0000   1.0000   1.0000   1.0000
     1.0000   1.0000

          k = 0.3571-0.2062-0.0768 (  2417 PWs)   bands (ev):

    -5.4863  -5.2192  -3.7162  -3.6869  -3.6180  -3.5618  -3.5455  -3.5033
    -3.4578  -3.4005  -2.9400  -1.6693   3.6032   4.8795   5.5398   7.2547
     8.2941   8.7972

     occupation numbers 
     1.0000   1.0000   1.0000   1.0000   1.0000   1.0000   1.0000   1.0000
     1.0000   1.0000   1.0000   1.0000   1.0000   1.0000   1.0000   1.0000
     1.0000   1.0000

          k = 0.3571-0.0412 0.0768 (  2422 PWs)   bands (ev):

    -5.5739  -5.2336  -3.7128  -3.6929  -3.6236  -3.5988  -3.5421  -3.5108
    -3.4689  -3.4314  -3.1576  -1.7357   3.7922   5.4751   5.8225   7.0341
     8.4688   8.6626

     occupation numbers 
     1.0000   1.0000   1.0000   1.0000   1.0000   1.0000   1.0000   1.0000
     1.0000   1.0000   1.0000   1.0000   1.0000   1.0000   1.0000   1.0000
     1.0000   1.0000

          k = 0.3571-0.0412 0.2305 (  2430 PWs)   bands (ev):

    -5.4182  -5.2778  -3.6954  -3.6748  -3.6542  -3.6252  -3.5449  -3.5338
    -3.4484  -3.4404  -2.9116  -2.3580   4.2649   5.0203   6.8773   7.2777
     7.9096   8.3795

     occupation numbers 
     1.0000   1.0000   1.0000   1.0000   1.0000   1.0000   1.0000   1.0000
     1.0000   1.0000   1.0000   1.0000   1.0000   1.0000   1.0000   1.0000
     1.0000   1.0000

          k = 0.3571-0.0412-0.2305 (  2430 PWs)   bands (ev):

    -5.4182  -5.2778  -3.6954  -3.6748  -3.6542  -3.6252  -3.5449  -3.5338
    -3.4484  -3.4404  -2.9116  -2.3580   4.2649   5.0203   6.8773   7.2777
     7.9096   8.3795

     occupation numbers 
     1.0000   1.0000   1.0000   1.0000   1.0000   1.0000   1.0000   1.0000
     1.0000   1.0000   1.0000   1.0000   1.0000   1.0000   1.0000   1.0000
     1.0000   1.0000

          k = 0.3571-0.0412-0.0768 (  2422 PWs)   bands (ev):

    -5.5739  -5.2336  -3.7128  -3.6929  -3.6236  -3.5988  -3.5421  -3.5108
    -3.4689  -3.4314  -3.1576  -1.7357   3.7922   5.4751   5.8225   7.0341
     8.4688   8.6626

     occupation numbers 
     1.0000   1.0000   1.0000   1.0000   1.0000   1.0000   1.0000   1.0000
     1.0000   1.0000   1.0000   1.0000   1.0000   1.0000   1.0000   1.0000
     1.0000   1.0000

          k = 0.3571 0.1237 0.0768 (  2421 PWs)   bands (ev):

    -5.5419  -5.2281  -3.7103  -3.6967  -3.6223  -3.5685  -3.5517  -3.5113
    -3.4682  -3.4111  -3.0929  -1.7113   3.7391   5.0956   5.7810   7.1896
     8.5046   8.7220

     occupation numbers 
     1.0000   1.0000   1.0000   1.0000   1.0000   1.0000   1.0000   1.0000
     1.0000   1.0000   1.0000   1.0000   1.0000   1.0000   1.0000   1.0000
     1.0000   1.0000

          k = 0.3571 0.1237 0.2305 (  2424 PWs)   bands (ev):

    -5.3969  -5.2676  -3.7115  -3.6757  -3.6526  -3.6009  -3.5392  -3.5157
    -3.4511  -3.4308  -2.8442  -2.3016   4.0219   4.7314   6.7742   7.5790
     8.0909   8.3660

     occupation numbers 
     1.0000   1.0000   1.0000   1.0000   1.0000   1.0000   1.0000   1.0000
     1.0000   1.0000   1.0000   1.0000   1.0000   1.0000   1.0000   1.0000
     1.0000   1.0000

          k = 0.3571 0.1237-0.2305 (  2424 PWs)   bands (ev):

    -5.3969  -5.2676  -3.7115  -3.6757  -3.6526  -3.6009  -3.5392  -3.5157
    -3.4511  -3.4308  -2.8442  -2.3016   4.0219   4.7314   6.7742   7.5790
     8.0909   8.3660

     occupation numbers 
     1.0000   1.0000   1.0000   1.0000   1.0000   1.0000   1.0000   1.0000
     1.0000   1.0000   1.0000   1.0000   1.0000   1.0000   1.0000   1.0000
     1.0000   1.0000

          k = 0.3571 0.1237-0.0768 (  2421 PWs)   bands (ev):

    -5.5419  -5.2281  -3.7103  -3.6967  -3.6223  -3.5685  -3.5517  -3.5113
    -3.4682  -3.4111  -3.0929  -1.7113   3.7391   5.0956   5.7810   7.1896
     8.5046   8.7220

     occupation numbers 
     1.0000   1.0000   1.0000   1.0000   1.0000   1.0000   1.0000   1.0000
     1.0000   1.0000   1.0000   1.0000   1.0000   1.0000   1.0000   1.0000
     1.0000   1.0000

          k =-0.5000-0.2062 0.0768 (  2409 PWs)   bands (ev):

    -5.3604  -5.2032  -3.7176  -3.6884  -3.5896  -3.5751  -3.5184  -3.4833
    -3.4318  -3.4000  -2.3082  -1.6964   3.2185   4.3107   5.6957   6.7864
     7.6659   8.4144

     occupation numbers 
     1.0000   1.0000   1.0000   1.0000   1.0000   1.0000   1.0000   1.0000
     1.0000   1.0000   1.0000   1.0000   1.0000   1.0000   1.0000   1.0000
     1.0000   1.0000

          k =-0.5000-0.2062 0.2305 (  2410 PWs)   bands (ev):

    -5.2776  -5.2126  -3.7229  -3.6815  -3.6378  -3.5622  -3.5192  -3.4679
    -3.4277  -3.4182  -2.1682  -1.9102   3.0373   3.5036   6.8859   7.4253
     7.7509   8.2019

     occupation numbers 
     1.0000   1.0000   1.0000   1.0000   1.0000   1.0000   1.0000   1.0000
     1.0000   1.0000   1.0000   1.0000   1.0000   1.0000   1.0000   1.0000
     1.0000   1.0000

          k =-0.5000-0.2062-0.2305 (  2410 PWs)   bands (ev):

    -5.2776  -5.2126  -3.7229  -3.6815  -3.6378  -3.5622  -3.5192  -3.4679
    -3.4277  -3.4182  -2.1682  -1.9102   3.0373   3.5036   6.8859   7.4253
     7.7509   8.2019

     occupation numbers 
     1.0000   1.0000   1.0000   1.0000   1.0000   1.0000   1.0000   1.0000
     1.0000   1.0000   1.0000   1.0000   1.0000   1.0000   1.0000   1.0000
     1.0000   1.0000

          k =-0.5000-0.2062-0.0768 (  2409 PWs)   bands (ev):

    -5.3604  -5.2032  -3.7176  -3.6884  -3.5896  -3.5751  -3.5184  -3.4833
    -3.4318  -3.4000  -2.3082  -1.6964   3.2185   4.3107   5.6957   6.7864
     7.6659   8.4144

     occupation numbers 
     1.0000   1.0000   1.0000   1.0000   1.0000   1.0000   1.0000   1.0000
     1.0000   1.0000   1.0000   1.0000   1.0000   1.0000   1.0000   1.0000
     1.0000   1.0000

          k =-0.5000-0.0412 0.0768 (  2415 PWs)   bands (ev):

    -5.3490  -5.2078  -3.7374  -3.6447  -3.5837  -3.5601  -3.5332  -3.5125
    -3.4498  -3.4330  -2.4413  -1.5296   3.7584   4.5248   5.6629   5.9664
     7.5474   7.8903

     occupation numbers 
     1.0000   1.0000   1.0000   1.0000   1.0000   1.0000   1.0000   1.0000
     1.0000   1.0000   1.0000   1.0000   1.0000   1.0000   1.0000   1.0000
     1.0000   1.0000

          k =-0.5000-0.0412 0.2305 (  2420 PWs)   bands (ev):

    -5.2692  -5.2115  -3.6812  -3.6692  -3.6355  -3.5872  -3.5285  -3.5134
    -3.4479  -3.4340  -2.2369  -1.8605   3.5647   3.9643   6.0005   6.7854
     7.4047   8.2958

     occupation numbers 
     1.0000   1.0000   1.0000   1.0000   1.0000   1.0000   1.0000   1.0000
     1.0000   1.0000   1.0000   1.0000   1.0000   1.0000   1.0000   1.0000
     1.0000   1.0000

          k =-0.5000-0.0412-0.2305 (  2420 PWs)   bands (ev):

    -5.2692  -5.2115  -3.6812  -3.6692  -3.6355  -3.5872  -3.5285  -3.5134
    -3.4479  -3.4340  -2.2369  -1.8605   3.5647   3.9643   6.0005   6.7854
     7.4047   8.2958

     occupation numbers 
     1.0000   1.0000   1.0000   1.0000   1.0000   1.0000   1.0000   1.0000
     1.0000   1.0000   1.0000   1.0000   1.0000   1.0000   1.0000   1.0000
     1.0000   1.0000

          k =-0.5000-0.0412-0.0768 (  2415 PWs)   bands (ev):

    -5.3490  -5.2078  -3.7374  -3.6447  -3.5837  -3.5601  -3.5332  -3.5125
    -3.4498  -3.4330  -2.4413  -1.5296   3.7584   4.5248   5.6629   5.9664
     7.5474   7.8903

     occupation numbers 
     1.0000   1.0000   1.0000   1.0000   1.0000   1.0000   1.0000   1.0000
     1.0000   1.0000   1.0000   1.0000   1.0000   1.0000   1.0000   1.0000
     1.0000   1.0000

          k =-0.5000 0.1237 0.0768 (  2415 PWs)   bands (ev):

    -5.3542  -5.2055  -3.7258  -3.6737  -3.5868  -3.5558  -3.5333  -3.4956
    -3.4442  -3.4167  -2.3910  -1.5948   3.4602   4.4771   5.6485   6.3324
     7.7500   7.9884

     occupation numbers 
     1.0000   1.0000   1.0000   1.0000   1.0000   1.0000   1.0000   1.0000
     1.0000   1.0000   1.0000   1.0000   1.0000   1.0000   1.0000   1.0000
     1.0000   1.0000

          k =-0.5000 0.1237 0.2305 (  2418 PWs)   bands (ev):

    -5.2730  -5.2119  -3.7018  -3.6692  -3.6467  -3.5736  -3.5214  -3.4886
    -3.4391  -3.4300  -2.2103  -1.8788   3.2923   3.7467   6.4028   7.2017
     7.4389   8.2612

     occupation numbers 
     1.0000   1.0000   1.0000   1.0000   1.0000   1.0000   1.0000   1.0000
     1.0000   1.0000   1.0000   1.0000   1.0000   1.0000   1.0000   1.0000
     1.0000   1.0000

          k =-0.5000 0.1237-0.2305 (  2418 PWs)   bands (ev):

    -5.2730  -5.2119  -3.7018  -3.6692  -3.6467  -3.5736  -3.5214  -3.4886
    -3.4391  -3.4300  -2.2103  -1.8788   3.2923   3.7467   6.4028   7.2017
     7.4389   8.2612

     occupation numbers 
     1.0000   1.0000   1.0000   1.0000   1.0000   1.0000   1.0000   1.0000
     1.0000   1.0000   1.0000   1.0000   1.0000   1.0000   1.0000   1.0000
     1.0000   1.0000

          k =-0.5000 0.1237-0.0768 (  2415 PWs)   bands (ev):

    -5.3542  -5.2055  -3.7258  -3.6737  -3.5868  -3.5558  -3.5333  -3.4956
    -3.4442  -3.4167  -2.3910  -1.5948   3.4602   4.4771   5.6485   6.3324
     7.7500   7.9884

     occupation numbers 
     1.0000   1.0000   1.0000   1.0000   1.0000   1.0000   1.0000   1.0000
     1.0000   1.0000   1.0000   1.0000   1.0000   1.0000   1.0000   1.0000
     1.0000   1.0000

          k =-0.5000-0.8660 0.0768 (  2402 PWs)   bands (ev):

    -5.3630  -5.2022  -3.7207  -3.6848  -3.5881  -3.5873  -3.5132  -3.4800
    -3.4248  -3.3933  -2.2587  -1.7544   3.1335   4.2298   5.7233   6.9879
     7.6252   8.6094

     occupation numbers 
     1.0000   1.0000   1.0000   1.0000   1.0000   1.0000   1.0000   1.0000
     1.0000   1.0000   1.0000   1.0000   1.0000   1.0000   1.0000   1.0000
     1.0000   1.0000

          k =-0.5000-0.8660 0.2305 (  2412 PWs)   bands (ev):

    -5.2795  -5.2129  -3.7310  -3.6875  -3.6314  -3.5578  -3.5200  -3.4624
    -3.4216  -3.4111  -2.1438  -1.9296   2.9411   3.4045   7.1181   7.4147
     8.0762   8.0792

     occupation numbers 
     1.0000   1.0000   1.0000   1.0000   1.0000   1.0000   1.0000   1.0000
     1.0000   1.0000   1.0000   1.0000   1.0000   1.0000   1.0000   1.0000
     1.0000   1.0000

     highest occupied level (ev):     9.5793

!    total energy              =    -395.68571924 Ry
     estimated scf accuracy    <          7.2E-16 Ry

     The total energy is the sum of the following terms:
     one-electron contribution =    -187.65890679 Ry
     hartree contribution      =     133.55253260 Ry
     xc contribution           =    -108.40426773 Ry
     ewald contribution        =    -233.17507731 Ry

     convergence has been achieved in  44 iterations

     Forces acting on atoms (cartesian axes, Ry/au):

     atom    1 type  1   force =     0.00000267   -0.00000154   -0.00464322
     atom    2 type  1   force =    -0.00000267    0.00000154   -0.00464325
     atom    3 type  2   force =     0.00001498   -0.00000865    0.00464323
     atom    4 type  2   force =    -0.00001498    0.00000865    0.00464323
     The non-local contrib.  to forces
     atom    1 type  1   force =     0.00022570   -0.00013031   -0.01425349
     atom    2 type  1   force =    -0.00022570    0.00013031   -0.01425350
     atom    3 type  2   force =     0.00023647   -0.00013653    0.01328727
     atom    4 type  2   force =    -0.00023647    0.00013653    0.01328727
     The ionic contribution  to forces
     atom    1 type  1   force =    -0.00003224    0.00001861    0.06477348
     atom    2 type  1   force =     0.00003224   -0.00001861    0.06477348
     atom    3 type  2   force =    -0.00002895    0.00001671   -0.06477348
     atom    4 type  2   force =     0.00002895   -0.00001671   -0.06477348
     The local contribution  to forces
[...]
    -3.4435  -3.4164  -2.3905  -1.5946   3.4525   4.4617   5.6631   6.3290
     7.7671   7.9724

     occupation numbers 
     1.0000   1.0000   1.0000   1.0000   1.0000   1.0000   1.0000   1.0000
     1.0000   1.0000   1.0000   1.0000   1.0000   1.0000   1.0000   1.0000
     1.0000   1.0000

          k = 0.3571-0.3712 0.2305 (  2418 PWs)   bands (ev):

    -5.2718  -5.2112  -3.7006  -3.6678  -3.6459  -3.5742  -3.5200  -3.4879
    -3.4381  -3.4292  -2.2093  -1.8779   3.2869   3.7375   6.3971   7.1894
     7.4478   8.2792

     occupation numbers 
     1.0000   1.0000   1.0000   1.0000   1.0000   1.0000   1.0000   1.0000
     1.0000   1.0000   1.0000   1.0000   1.0000   1.0000   1.0000   1.0000
     1.0000   1.0000

          k = 0.3571-0.3712-0.2305 (  2418 PWs)   bands (ev):

    -5.2718  -5.2112  -3.7006  -3.6678  -3.6459  -3.5742  -3.5200  -3.4879
    -3.4382  -3.4291  -2.2093  -1.8779   3.2869   3.7375   6.3971   7.1894
     7.4478   8.2792

     occupation numbers 
     1.0000   1.0000   1.0000   1.0000   1.0000   1.0000   1.0000   1.0000
     1.0000   1.0000   1.0000   1.0000   1.0000   1.0000   1.0000   1.0000
     1.0000   1.0000

          k = 0.3571-0.3712-0.0768 (  2415 PWs)   bands (ev):

    -5.3527  -5.2054  -3.7246  -3.6722  -3.5849  -3.5537  -3.5340  -3.4950
    -3.4435  -3.4164  -2.3905  -1.5946   3.4525   4.4617   5.6632   6.3290
     7.7671   7.9724

     occupation numbers 
     1.0000   1.0000   1.0000   1.0000   1.0000   1.0000   1.0000   1.0000
     1.0000   1.0000   1.0000   1.0000   1.0000   1.0000   1.0000   1.0000
     1.0000   1.0000

          k = 0.3571-0.2062 0.0768 (  2417 PWs)   bands (ev):

    -5.4847  -5.2197  -3.7150  -3.6862  -3.6142  -3.5604  -3.5471  -3.5034
    -3.4575  -3.4002  -2.9414  -1.6710   3.6091   4.8807   5.5347   7.2476
     8.3216   8.7742

     occupation numbers 
     1.0000   1.0000   1.0000   1.0000   1.0000   1.0000   1.0000   1.0000
     1.0000   1.0000   1.0000   1.0000   1.0000   1.0000   1.0000   1.0000
     1.0000   1.0000

          k = 0.3571-0.2062 0.2305 (  2424 PWs)   bands (ev):

    -5.3590  -5.2499  -3.7199  -3.6783  -3.6430  -3.5841  -3.5325  -3.4943
    -3.4456  -3.4227  -2.6983  -2.1911   3.6884   4.3279   6.8254   7.6523
     8.2060   8.2789

     occupation numbers 
     1.0000   1.0000   1.0000   1.0000   1.0000   1.0000   1.0000   1.0000
     1.0000   1.0000   1.0000   1.0000   1.0000   1.0000   1.0000   1.0000
     1.0000   1.0000

          k = 0.3571-0.2062-0.2305 (  2424 PWs)   bands (ev):

    -5.3590  -5.2499  -3.7199  -3.6784  -3.6430  -3.5841  -3.5325  -3.4944
    -3.4457  -3.4227  -2.6983  -2.1911   3.6884   4.3279   6.8254   7.6523
     8.2059   8.2789

     occupation numbers 
     1.0000   1.0000   1.0000   1.0000   1.0000   1.0000   1.0000   1.0000
     1.0000   1.0000   1.0000   1.0000   1.0000   1.0000   1.0000   1.0000
     1.0000   1.0000

          k = 0.3571-0.2062-0.0768 (  2417 PWs)   bands (ev):

    -5.4847  -5.2197  -3.7150  -3.6862  -3.6142  -3.5603  -3.5471  -3.5035
    -3.4575  -3.4002  -2.9414  -1.6710   3.6091   4.8807   5.5348   7.2476
     8.3216   8.7742

     occupation numbers 
     1.0000   1.0000   1.0000   1.0000   1.0000   1.0000   1.0000   1.0000
     1.0000   1.0000   1.0000   1.0000   1.0000   1.0000   1.0000   1.0000
     1.0000   1.0000

          k = 0.3571-0.0412 0.0768 (  2422 PWs)   bands (ev):

    -5.5723  -5.2344  -3.7122  -3.6908  -3.6227  -3.5994  -3.5415  -3.5110
    -3.4685  -3.4314  -3.1588  -1.7378   3.8162   5.4704   5.8134   7.0245
     8.4478   8.6861

     occupation numbers 
     1.0000   1.0000   1.0000   1.0000   1.0000   1.0000   1.0000   1.0000
     1.0000   1.0000   1.0000   1.0000   1.0000   1.0000   1.0000   1.0000
     1.0000   1.0000

          k = 0.3571-0.0412 0.2305 (  2430 PWs)   bands (ev):

    -5.4174  -5.2780  -3.6937  -3.6745  -3.6537  -3.6261  -3.5450  -3.5345
    -3.4478  -3.4396  -2.9111  -2.3577   4.2739   5.0186   6.8826   7.2699
     7.8952   8.3925

     occupation numbers 
     1.0000   1.0000   1.0000   1.0000   1.0000   1.0000   1.0000   1.0000
     1.0000   1.0000   1.0000   1.0000   1.0000   1.0000   1.0000   1.0000
     1.0000   1.0000

          k = 0.3571-0.0412-0.2305 (  2430 PWs)   bands (ev):

    -5.4174  -5.2780  -3.6936  -3.6746  -3.6538  -3.6261  -3.5450  -3.5345
    -3.4479  -3.4396  -2.9111  -2.3577   4.2739   5.0186   6.8826   7.2698
     7.8952   8.3925

     occupation numbers 
     1.0000   1.0000   1.0000   1.0000   1.0000   1.0000   1.0000   1.0000
     1.0000   1.0000   1.0000   1.0000   1.0000   1.0000   1.0000   1.0000
     1.0000   1.0000

          k = 0.3571-0.0412-0.0768 (  2422 PWs)   bands (ev):

    -5.5723  -5.2344  -3.7122  -3.6908  -3.6228  -3.5993  -3.5414  -3.5110
    -3.4685  -3.4314  -3.1588  -1.7378   3.8162   5.4704   5.8134   7.0245
     8.4478   8.6861

     occupation numbers 
     1.0000   1.0000   1.0000   1.0000   1.0000   1.0000   1.0000   1.0000
     1.0000   1.0000   1.0000   1.0000   1.0000   1.0000   1.0000   1.0000
     1.0000   1.0000

          k = 0.3571 0.1237 0.0768 (  2421 PWs)   bands (ev):

    -5.5403  -5.2288  -3.7091  -3.6957  -3.6194  -3.5699  -3.5504  -3.5121
    -3.4678  -3.4110  -3.0944  -1.7133   3.7562   5.0962   5.7687   7.1825
     8.5276   8.7028

     occupation numbers 
     1.0000   1.0000   1.0000   1.0000   1.0000   1.0000   1.0000   1.0000
     1.0000   1.0000   1.0000   1.0000   1.0000   1.0000   1.0000   1.0000
     1.0000   1.0000

          k = 0.3571 0.1237 0.2305 (  2424 PWs)   bands (ev):

    -5.3961  -5.2677  -3.7099  -3.6742  -3.6526  -3.6020  -3.5387  -3.5160
    -3.4507  -3.4303  -2.8440  -2.3016   4.0267   4.7277   6.7839   7.5703
     8.0866   8.3706

     occupation numbers 
     1.0000   1.0000   1.0000   1.0000   1.0000   1.0000   1.0000   1.0000
     1.0000   1.0000   1.0000   1.0000   1.0000   1.0000   1.0000   1.0000
     1.0000   1.0000

          k = 0.3571 0.1237-0.2305 (  2424 PWs)   bands (ev):

    -5.3961  -5.2677  -3.7100  -3.6742  -3.6526  -3.6020  -3.5387  -3.5159
    -3.4506  -3.4303  -2.8440  -2.3016   4.0267   4.7276   6.7839   7.5703
     8.0865   8.3706

     occupation numbers 
     1.0000   1.0000   1.0000   1.0000   1.0000   1.0000   1.0000   1.0000
     1.0000   1.0000   1.0000   1.0000   1.0000   1.0000   1.0000   1.0000
     1.0000   1.0000

          k = 0.3571 0.1237-0.0768 (  2421 PWs)   bands (ev):

    -5.5403  -5.2288  -3.7092  -3.6957  -3.6194  -3.5699  -3.5505  -3.5121
    -3.4678  -3.4110  -3.0944  -1.7133   3.7562   5.0962   5.7687   7.1825
     8.5276   8.7028

     occupation numbers 
     1.0000   1.0000   1.0000   1.0000   1.0000   1.0000   1.0000   1.0000
     1.0000   1.0000   1.0000   1.0000   1.0000   1.0000   1.0000   1.0000
     1.0000   1.0000

          k =-0.5000-0.2062 0.0768 (  2409 PWs)   bands (ev):

    -5.3589  -5.2032  -3.7168  -3.6870  -3.5874  -3.5723  -3.5196  -3.4819
    -3.4313  -3.3996  -2.3076  -1.6967   3.2095   4.2906   5.7198   6.7787
     7.6938   8.3894

     occupation numbers 
     1.0000   1.0000   1.0000   1.0000   1.0000   1.0000   1.0000   1.0000
     1.0000   1.0000   1.0000   1.0000   1.0000   1.0000   1.0000   1.0000
     1.0000   1.0000

          k =-0.5000-0.2062 0.2305 (  2410 PWs)   bands (ev):

    -5.2764  -5.2120  -3.7217  -3.6798  -3.6373  -3.5630  -3.5169  -3.4666
    -3.4271  -3.4176  -2.1673  -1.9097   3.0307   3.4927   6.8912   7.4285
     7.7401   8.2154

     occupation numbers 
     1.0000   1.0000   1.0000   1.0000   1.0000   1.0000   1.0000   1.0000
     1.0000   1.0000   1.0000   1.0000   1.0000   1.0000   1.0000   1.0000
     1.0000   1.0000

          k =-0.5000-0.2062-0.2305 (  2410 PWs)   bands (ev):

    -5.2764  -5.2120  -3.7217  -3.6798  -3.6373  -3.5630  -3.5169  -3.4666
    -3.4271  -3.4175  -2.1673  -1.9097   3.0307   3.4927   6.8912   7.4285
     7.7401   8.2154

     occupation numbers 
     1.0000   1.0000   1.0000   1.0000   1.0000   1.0000   1.0000   1.0000
     1.0000   1.0000   1.0000   1.0000   1.0000   1.0000   1.0000   1.0000
     1.0000   1.0000

          k =-0.5000-0.2062-0.0768 (  2409 PWs)   bands (ev):

    -5.3589  -5.2032  -3.7168  -3.6870  -3.5875  -3.5723  -3.5196  -3.4819
    -3.4314  -3.3996  -2.3076  -1.6967   3.2095   4.2906   5.7198   6.7786
     7.6938   8.3894

     occupation numbers 
     1.0000   1.0000   1.0000   1.0000   1.0000   1.0000   1.0000   1.0000
     1.0000   1.0000   1.0000   1.0000   1.0000   1.0000   1.0000   1.0000
     1.0000   1.0000

          k =-0.5000-0.0412 0.0768 (  2415 PWs)   bands (ev):

    -5.3474  -5.2075  -3.7360  -3.6428  -3.5823  -3.5604  -3.5321  -3.5124
    -3.4487  -3.4329  -2.4408  -1.5292   3.7540   4.5132   5.6577   5.9770
     7.5210   7.9157

     occupation numbers 
     1.0000   1.0000   1.0000   1.0000   1.0000   1.0000   1.0000   1.0000
     1.0000   1.0000   1.0000   1.0000   1.0000   1.0000   1.0000   1.0000
     1.0000   1.0000

          k =-0.5000-0.0412 0.2305 (  2420 PWs)   bands (ev):

    -5.2679  -5.2107  -3.6803  -3.6677  -3.6343  -3.5877  -3.5282  -3.5132
    -3.4465  -3.4330  -2.2357  -1.8594   3.5610   3.9567   5.9897   6.7681
     7.4192   8.3150

     occupation numbers 
     1.0000   1.0000   1.0000   1.0000   1.0000   1.0000   1.0000   1.0000
     1.0000   1.0000   1.0000   1.0000   1.0000   1.0000   1.0000   1.0000
     1.0000   1.0000

          k =-0.5000-0.0412-0.2305 (  2420 PWs)   bands (ev):

    -5.2679  -5.2107  -3.6803  -3.6678  -3.6343  -3.5877  -3.5282  -3.5131
    -3.4466  -3.4330  -2.2357  -1.8594   3.5610   3.9567   5.9897   6.7681
     7.4192   8.3150

     occupation numbers 
     1.0000   1.0000   1.0000   1.0000   1.0000   1.0000   1.0000   1.0000
     1.0000   1.0000   1.0000   1.0000   1.0000   1.0000   1.0000   1.0000
     1.0000   1.0000

          k =-0.5000-0.0412-0.0768 (  2415 PWs)   bands (ev):

    -5.3474  -5.2075  -3.7360  -3.6428  -3.5823  -3.5603  -3.5320  -3.5124
    -3.4487  -3.4329  -2.4408  -1.5292   3.7540   4.5132   5.6577   5.9769
     7.5210   7.9157

     occupation numbers 
     1.0000   1.0000   1.0000   1.0000   1.0000   1.0000   1.0000   1.0000
     1.0000   1.0000   1.0000   1.0000   1.0000   1.0000   1.0000   1.0000
     1.0000   1.0000

          k =-0.5000 0.1237 0.0768 (  2415 PWs)   bands (ev):

    -5.3527  -5.2054  -3.7246  -3.6722  -3.5849  -3.5537  -3.5340  -3.4950
    -3.4435  -3.4164  -2.3905  -1.5946   3.4525   4.4617   5.6632   6.3290
     7.7671   7.9724

     occupation numbers 
     1.0000   1.0000   1.0000   1.0000   1.0000   1.0000   1.0000   1.0000
     1.0000   1.0000   1.0000   1.0000   1.0000   1.0000   1.0000   1.0000
     1.0000   1.0000

          k =-0.5000 0.1237 0.2305 (  2418 PWs)   bands (ev):

    -5.2718  -5.2112  -3.7006  -3.6678  -3.6459  -3.5742  -3.5200  -3.4879
    -3.4382  -3.4291  -2.2093  -1.8779   3.2869   3.7375   6.3971   7.1894
     7.4478   8.2792

     occupation numbers 
     1.0000   1.0000   1.0000   1.0000   1.0000   1.0000   1.0000   1.0000
     1.0000   1.0000   1.0000   1.0000   1.0000   1.0000   1.0000   1.0000
     1.0000   1.0000

          k =-0.5000 0.1237-0.2305 (  2418 PWs)   bands (ev):

    -5.2718  -5.2112  -3.7006  -3.6678  -3.6459  -3.5742  -3.5200  -3.4879
    -3.4381  -3.4292  -2.2093  -1.8779   3.2869   3.7375   6.3971   7.1894
     7.4478   8.2792

     occupation numbers 
     1.0000   1.0000   1.0000   1.0000   1.0000   1.0000   1.0000   1.0000
     1.0000   1.0000   1.0000   1.0000   1.0000   1.0000   1.0000   1.0000
     1.0000   1.0000

          k =-0.5000 0.1237-0.0768 (  2415 PWs)   bands (ev):

    -5.3527  -5.2054  -3.7246  -3.6722  -3.5848  -3.5538  -3.5340  -3.4950
    -3.4435  -3.4164  -2.3905  -1.5946   3.4525   4.4617   5.6631   6.3290
     7.7671   7.9724

     occupation numbers 
     1.0000   1.0000   1.0000   1.0000   1.0000   1.0000   1.0000   1.0000
     1.0000   1.0000   1.0000   1.0000   1.0000   1.0000   1.0000   1.0000
     1.0000   1.0000

          k =-0.5000-0.8660 0.0768 (  2402 PWs)   bands (ev):

    -5.3615  -5.2023  -3.7200  -3.6837  -3.5867  -3.5833  -3.5145  -3.4783
    -3.4245  -3.3928  -2.2580  -1.7550   3.1240   4.2085   5.7493   6.9795
     7.6542   8.5841

     occupation numbers 
     1.0000   1.0000   1.0000   1.0000   1.0000   1.0000   1.0000   1.0000
     1.0000   1.0000   1.0000   1.0000   1.0000   1.0000   1.0000   1.0000
     1.0000   1.0000

          k =-0.5000-0.8660 0.2305 (  2412 PWs)   bands (ev):

    -5.2784  -5.2124  -3.7298  -3.6858  -3.6310  -3.5585  -3.5173  -3.4610
    -3.4211  -3.4105  -2.1429  -1.9293   2.9341   3.3933   7.1392   7.4025
     8.0602   8.0978

     occupation numbers 
     1.0000   1.0000   1.0000   1.0000   1.0000   1.0000   1.0000   1.0000
     1.0000   1.0000   1.0000   1.0000   1.0000   1.0000   1.0000   1.0000
     1.0000   1.0000

     highest occupied level (ev):     9.5684

!    total energy              =    -395.68580653 Ry
     estimated scf accuracy    <          3.7E-17 Ry

     The total energy is the sum of the following terms:
     one-electron contribution =    -187.66733140 Ry
     hartree contribution      =     133.55732426 Ry
     xc contribution           =    -108.40451011 Ry
     ewald contribution        =    -233.17128928 Ry

     convergence has been achieved in  27 iterations

     Forces acting on atoms (cartesian axes, Ry/au):

     atom    1 type  1   force =    -0.00000204    0.00000118    0.00002386
     atom    2 type  1   force =     0.00000203   -0.00000117   -0.00000333
     atom    3 type  2   force =     0.00000195   -0.00000113   -0.00004027
     atom    4 type  2   force =    -0.00000193    0.00000112    0.00001975
     The non-local contrib.  to forces
     atom    1 type  1   force =     0.00018270   -0.00010548   -0.00366426
     atom    2 type  1   force =    -0.00018275    0.00010551   -0.00375410
     atom    3 type  2   force =     0.00019323   -0.00011156    0.01497535
     atom    4 type  2   force =    -0.00019323    0.00011156    0.01511073
     The ionic contribution  to forces
     atom    1 type  1   force =    -0.00030029    0.00017337    0.13562497
     atom    2 type  1   force =     0.00030009   -0.00017326    0.13311106
     atom    3 type  2   force =    -0.00005240    0.00003025   -0.13502966
     atom    4 type  2   force =     0.00005260   -0.00003037   -0.13370638
     The local contribution  to forces
     atom    1 type  1   force =     0.00011851   -0.00006842   -0.13230555
     atom    2 type  1   force =    -0.00011828    0.00006829   -0.12973515
     atom    3 type  2   force =    -0.00013888    0.00008018    0.12003208
     atom    4 type  2   force =     0.00013869   -0.00008007    0.11863345
     The core correction contribution to forces
     atom    1 type  1   force =    -0.00000296    0.00000171    0.00038675
     atom    2 type  1   force =     0.00000296   -0.00000171    0.00039291
     atom    3 type  2   force =     0.00000000    0.00000000    0.00000000
     atom    4 type  2   force =     0.00000000    0.00000000    0.00000000
     The Hubbard contrib.    to forces
     atom    1 type  1   force =     0.00000000    0.00000000    0.00000000
     atom    2 type  1   force =     0.00000000    0.00000000    0.00000000
     atom    3 type  2   force =     0.00000000    0.00000000    0.00000000
     atom    4 type  2   force =     0.00000000    0.00000000    0.00000000
     The SCF correction term to forces
     atom    1 type  1   force =     0.00000000   -0.00000000   -0.00000000
     atom    2 type  1   force =     0.00000000   -0.00000000    0.00000000
     atom    3 type  2   force =     0.00000000   -0.00000000   -0.00000000
     atom    4 type  2   force =     0.00000000   -0.00000000   -0.00000000

     Total force =     0.000045     Total SCF correction =     0.000000
     Energy error            =      4.8E-08
     Gradient error          =      4.0E-05

     bfgs converged in   8 scf cycles and   7 bfgs steps
     (criteria: energy <  1.0E-05 Ry, force <  1.0E-04 Ry/Bohr)

     End of BFGS Geometry Optimization

     Final energy   =    -395.6858065279 Ry

     File ./gan_wz/gan_wz.bfgs deleted, as requested
Begin final coordinates

ATOMIC_POSITIONS (crystal)
Ga            0.6666619635        0.3333380364        0.0000000000    1   1   0
Ga            0.3333380402        0.6666619598        0.5000038416
N             0.6666759157        0.3333240843        0.3769428683
N             0.3333240805        0.6666759195        0.8769306859
End final coordinates



     Writing output data file ./gan_wz/gan_wz.save/

     init_run     :      9.69s CPU      9.79s WALL (       1 calls)
     electrons    :   3250.53s CPU   3268.65s WALL (       8 calls)
     update_pot   :      1.66s CPU      1.66s WALL (       7 calls)
     forces       :     24.06s CPU     24.34s WALL (       8 calls)

     Called by init_run:
     wfcinit      :      8.41s CPU      8.46s WALL (       1 calls)
     wfcinit:atom :      0.11s CPU      0.11s WALL (      98 calls)
     wfcinit:wfcr :      7.80s CPU      7.85s WALL (      98 calls)
     potinit      :      0.14s CPU      0.15s WALL (       1 calls)
     hinit0       :      0.99s CPU      1.00s WALL (       1 calls)

     Called by electrons:
     c_bands      :   2800.56s CPU   2806.83s WALL (     173 calls)
     sum_band     :    416.90s CPU    423.63s WALL (     173 calls)
     v_of_rho     :     12.02s CPU     12.04s WALL (     174 calls)
     v_h          :      0.66s CPU      0.66s WALL (     174 calls)
     v_xc         :     11.89s CPU     11.91s WALL (     182 calls)
     newd         :     19.28s CPU     24.63s WALL (     174 calls)
     mix_rho      :      2.31s CPU      2.31s WALL (     173 calls)

     Called by c_bands:
     init_us_2    :     50.44s CPU     50.75s WALL (   34790 calls)
     cegterg      :   2651.10s CPU   2656.78s WALL (   16954 calls)

     Called by sum_band:
     sum_band:wei :      0.00s CPU      0.00s WALL (     173 calls)
     sum_band:loo :    394.04s CPU    395.14s WALL (     173 calls)
     sum_band:buf :      1.70s CPU      1.72s WALL (   16954 calls)
     sum_band:ini :     24.59s CPU     24.66s WALL (   16954 calls)
     sum_band:cal :    101.07s CPU    101.27s WALL (   16954 calls)
     sum_band:bec :      0.59s CPU      0.59s WALL (   16954 calls)
     addusdens    :     21.91s CPU     27.54s WALL (     173 calls)
     addusd:skk   :      0.11s CPU      0.12s WALL (     346 calls)
     addusd:dgemm :      6.82s CPU     11.72s WALL (     346 calls)
     addusd:qvan2 :     11.74s CPU     11.76s WALL (     346 calls)

     Called by *egterg:
     cdiaghg      :     28.28s CPU     28.37s WALL (   51757 calls)
     cegterg:over :    175.21s CPU    175.58s WALL (   36175 calls)
     cegterg:upda :    100.17s CPU    100.43s WALL (   36175 calls)
     cegterg:last :    197.09s CPU    197.44s WALL (   28498 calls)
     h_psi        :   1789.83s CPU   1794.01s WALL (   53227 calls)
     s_psi        :    253.28s CPU    253.89s WALL (   53227 calls)
     g_psi        :     26.17s CPU     26.21s WALL (   36175 calls)

     Called by h_psi:
     h_psi:calbec :    245.99s CPU    246.40s WALL (   53227 calls)
     vloc_psi     :   1286.50s CPU   1289.88s WALL (   53227 calls)
     add_vuspsi   :    252.65s CPU    253.17s WALL (   53227 calls)

     General routines
     calbec       :    365.09s CPU    365.91s WALL (   73317 calls)
     fft          :      6.15s CPU      6.16s WALL (    2348 calls)
     ffts         :      0.47s CPU      0.47s WALL (     347 calls)
     fftw         :   1410.42s CPU   1414.46s WALL ( 1791368 calls)
     interpolate  :      0.62s CPU      0.62s WALL (     174 calls)

     Parallel routines

     PWSCF        :  54m47.15s CPU  55m 6.35s WALL


   This run was terminated on:  20:42:21   3Nov2022            

=------------------------------------------------------------------------------=
   JOB DONE.
=------------------------------------------------------------------------------=
