
     Program PWSCF v.6.7MaX starts on  3Nov2022 at 20:51:10 

     This program is part of the open-source Quantum ESPRESSO suite
     for quantum simulation of materials; please cite
         "P. Giannozzi et al., J. Phys.:Condens. Matter 21 395502 (2009);
         "P. Giannozzi et al., J. Phys.:Condens. Matter 29 465901 (2017);
          URL http://www.quantum-espresso.org", 
     in publications or presentations arising from this work. More details at
     http://www.quantum-espresso.org/quote

     Parallel version (MPI), running on     1 processors

     MPI processes distributed on     1 nodes
     Waiting for input...
     Reading input from standard input

     Current dimensions of program PWSCF are:
     Max number of different atomic species (ntypx) = 10
     Max number of k-points (npk) =  40000
     Max angular momentum in pseudopotentials (lmaxx) =  3
     file N.pbe-rrkjus.UPF: wavefunction(s)  2S renormalized

     Subspace diagonalization in iterative solution of the eigenvalue problem:
     a serial algorithm will be used


     G-vector sticks info
     --------------------
     sticks:   dense  smooth     PW     G-vecs:    dense   smooth      PW
     Sum         913     595    199                35591    19411    3609



     bravais-lattice index     =            4
     lattice parameter (alat)  =       6.0282  a.u.
     unit-cell volume          =     308.5974 (a.u.)^3
     number of atoms/cell      =            4
     number of atomic types    =            2
     number of electrons       =        36.00
     number of Kohn-Sham states=           18
     kinetic-energy cutoff     =      60.0000  Ry
     charge density cutoff     =     360.0000  Ry
     scf convergence threshold =      1.0E-14
     mixing beta               =       0.7000
     number of iterations used =            8  plain     mixing
     energy convergence thresh.=      1.0E-05
     force convergence thresh. =      1.0E-04
     press convergence thresh. =      1.0E-01
     Exchange-correlation=  SLA  PW   PBE  PBE
                           (   1   4   3   4   0   0   0)
     nstep                     =          200


     celldm(1)=   6.028226  celldm(2)=   0.000000  celldm(3)=   1.626646
     celldm(4)=   0.000000  celldm(5)=   0.000000  celldm(6)=   0.000000

     crystal axes: (cart. coord. in units of alat)
               a(1) = (   1.000000   0.000000   0.000000 )  
               a(2) = (  -0.500000   0.866025   0.000000 )  
               a(3) = (   0.000000   0.000000   1.626646 )  

     reciprocal axes: (cart. coord. in units 2 pi/alat)
               b(1) = (  1.000000  0.577350 -0.000000 )  
               b(2) = (  0.000000  1.154701  0.000000 )  
               b(3) = (  0.000000 -0.000000  0.614762 )  


     PseudoPot. # 1 for Ga read from file:
     /home/shigeki/.burai/.pseudopot/Ga.pbe-n-van.UPF
     MD5 check sum: c4a2f5e459d74fd8114b062e68c1095a
     Pseudo is Ultrasoft + core correction, Zval = 13.0
     Generated by new atomic code, or converted to UPF format
     Using radial grid of  871 points,  6 beta functions with: 
                l(1) =   0
                l(2) =   0
                l(3) =   1
                l(4) =   1
                l(5) =   2
                l(6) =   2
     Q(r) pseudized with  8 coefficients,  rinner =    1.000   1.000   1.000
                                                       1.000   1.000

     PseudoPot. # 2 for N  read from file:
     /home/shigeki/.burai/.pseudopot/N.pbe-rrkjus.UPF
     MD5 check sum: 0c3fbe5807a93f9ba59d5a7019aa238b
     Pseudo is Ultrasoft, Zval =  5.0
     Generated by new atomic code, or converted to UPF format
     Using radial grid of 1257 points,  4 beta functions with: 
                l(1) =   0
                l(2) =   0
                l(3) =   1
                l(4) =   1
     Q(r) pseudized with 0 coefficients 


     atomic species   valence    mass     pseudopotential
        Ga            13.00    69.72300     Ga( 1.00)
        N              5.00    14.00674     N ( 1.00)

     No symmetry found


                                    s                        frac. trans.

      isym =  1     identity                                     

 cryst.   s( 1) = (     1          0          0      )
                  (     0          1          0      )
                  (     0          0          1      )

 cart.    s( 1) = (  1.0000000  0.0000000  0.0000000 )
                  (  0.0000000  1.0000000  0.0000000 )
                  (  0.0000000  0.0000000  1.0000000 )


     point group C_1 (1)    
     there are  1 classes
     the character table:

       E    
A      1.00

     the symmetry operations in each class and the name of the first element:

     E        1
          identity                                               

   Cartesian axes

     site n.     atom                  positions (alat units)
         1           Ga  tau(   1) = (   0.4999929   0.2886792   0.0000000  )
         2           Ga  tau(   2) = (   0.0000071   0.5773462   0.8133291  )
         3           N   tau(   3) = (   0.5000139   0.2886671   0.6131525  )
         4           N   tau(   4) = (  -0.0000139   0.5773583   1.4264556  )

   Crystallographic axes

     site n.     atom                  positions (cryst. coord.)
         1           Ga  tau(   1) = (  0.6666620  0.3333380  0.0000000  )
         2           Ga  tau(   2) = (  0.3333380  0.6666620  0.5000038  )
         3           N   tau(   3) = (  0.6666759  0.3333241  0.3769429  )
         4           N   tau(   4) = (  0.3333241  0.6666759  0.8769307  )

     number of k points=    98
                       cart. coord. in units 2pi/alat
        k(    1) = (   0.0714286   0.1237179   0.0768452), wk =   0.0204082
        k(    2) = (   0.0714286   0.1237179   0.2305357), wk =   0.0204082
        k(    3) = (   0.0714286   0.1237179  -0.2305357), wk =   0.0204082
        k(    4) = (   0.0714286   0.1237179  -0.0768452), wk =   0.0204082
        k(    5) = (   0.0714286   0.2886751   0.0768452), wk =   0.0204082
        k(    6) = (   0.0714286   0.2886751   0.2305357), wk =   0.0204082
        k(    7) = (   0.0714286   0.2886751  -0.2305357), wk =   0.0204082
        k(    8) = (   0.0714286   0.2886751  -0.0768452), wk =   0.0204082
        k(    9) = (   0.0714286   0.4536324   0.0768452), wk =   0.0204082
        k(   10) = (   0.0714286   0.4536324   0.2305357), wk =   0.0204082
        k(   11) = (   0.0714286   0.4536324  -0.2305357), wk =   0.0204082
        k(   12) = (   0.0714286   0.4536324  -0.0768452), wk =   0.0204082
        k(   13) = (   0.0714286  -0.5361110   0.0768452), wk =   0.0204082
        k(   14) = (   0.0714286  -0.5361110   0.2305357), wk =   0.0204082
        k(   15) = (   0.0714286  -0.5361110  -0.2305357), wk =   0.0204082
        k(   16) = (   0.0714286  -0.5361110  -0.0768452), wk =   0.0204082
        k(   17) = (   0.0714286  -0.3711537   0.0768452), wk =   0.0204082
        k(   18) = (   0.0714286  -0.3711537   0.2305357), wk =   0.0204082
        k(   19) = (   0.0714286  -0.3711537  -0.2305357), wk =   0.0204082
        k(   20) = (   0.0714286  -0.3711537  -0.0768452), wk =   0.0204082
        k(   21) = (   0.0714286  -0.2061965   0.0768452), wk =   0.0204082
        k(   22) = (   0.0714286  -0.2061965   0.2305357), wk =   0.0204082
        k(   23) = (   0.0714286  -0.2061965  -0.2305357), wk =   0.0204082
        k(   24) = (   0.0714286  -0.2061965  -0.0768452), wk =   0.0204082
        k(   25) = (   0.0714286  -0.0412393   0.0768452), wk =   0.0204082
        k(   26) = (   0.0714286  -0.0412393   0.2305357), wk =   0.0204082
        k(   27) = (   0.0714286  -0.0412393  -0.2305357), wk =   0.0204082
        k(   28) = (   0.0714286  -0.0412393  -0.0768452), wk =   0.0204082
        k(   29) = (   0.2142857   0.2061965   0.0768452), wk =   0.0204082
        k(   30) = (   0.2142857   0.2061965   0.2305357), wk =   0.0204082
        k(   31) = (   0.2142857   0.2061965  -0.2305357), wk =   0.0204082
        k(   32) = (   0.2142857   0.2061965  -0.0768452), wk =   0.0204082
        k(   33) = (   0.2142857   0.3711537   0.0768452), wk =   0.0204082
        k(   34) = (   0.2142857   0.3711537   0.2305357), wk =   0.0204082
        k(   35) = (   0.2142857   0.3711537  -0.2305357), wk =   0.0204082
        k(   36) = (   0.2142857   0.3711537  -0.0768452), wk =   0.0204082
        k(   37) = (   0.2142857   0.5361110   0.0768452), wk =   0.0204082
        k(   38) = (   0.2142857   0.5361110   0.2305357), wk =   0.0204082
        k(   39) = (   0.2142857   0.5361110  -0.2305357), wk =   0.0204082
        k(   40) = (   0.2142857   0.5361110  -0.0768452), wk =   0.0204082
        k(   41) = (   0.2142857  -0.4536324   0.0768452), wk =   0.0204082
        k(   42) = (   0.2142857  -0.4536324   0.2305357), wk =   0.0204082
        k(   43) = (   0.2142857  -0.4536324  -0.2305357), wk =   0.0204082
        k(   44) = (   0.2142857  -0.4536324  -0.0768452), wk =   0.0204082
        k(   45) = (   0.2142857  -0.2886751   0.0768452), wk =   0.0204082
        k(   46) = (   0.2142857  -0.2886751   0.2305357), wk =   0.0204082
        k(   47) = (   0.2142857  -0.2886751  -0.2305357), wk =   0.0204082
        k(   48) = (   0.2142857  -0.2886751  -0.0768452), wk =   0.0204082
        k(   49) = (   0.2142857  -0.1237179   0.0768452), wk =   0.0204082
        k(   50) = (   0.2142857  -0.1237179   0.2305357), wk =   0.0204082
        k(   51) = (   0.2142857  -0.1237179  -0.2305357), wk =   0.0204082
        k(   52) = (   0.2142857  -0.1237179  -0.0768452), wk =   0.0204082
        k(   53) = (   0.2142857   0.0412393   0.0768452), wk =   0.0204082
        k(   54) = (   0.2142857   0.0412393   0.2305357), wk =   0.0204082
        k(   55) = (   0.2142857   0.0412393  -0.2305357), wk =   0.0204082
        k(   56) = (   0.2142857   0.0412393  -0.0768452), wk =   0.0204082
        k(   57) = (   0.3571429   0.2886751   0.0768452), wk =   0.0204082
        k(   58) = (   0.3571429   0.2886751   0.2305357), wk =   0.0204082
        k(   59) = (   0.3571429   0.2886751  -0.2305357), wk =   0.0204082
        k(   60) = (   0.3571429   0.2886751  -0.0768452), wk =   0.0204082
        k(   61) = (   0.3571429   0.4536324   0.0768452), wk =   0.0204082
        k(   62) = (   0.3571429   0.4536324   0.2305357), wk =   0.0204082
        k(   63) = (   0.3571429   0.4536324  -0.2305357), wk =   0.0204082
        k(   64) = (   0.3571429   0.4536324  -0.0768452), wk =   0.0204082
        k(   65) = (   0.3571429   0.6185896   0.0768452), wk =   0.0204082
        k(   66) = (   0.3571429   0.6185896   0.2305357), wk =   0.0204082
        k(   67) = (   0.3571429   0.6185896  -0.2305357), wk =   0.0204082
        k(   68) = (   0.3571429   0.6185896  -0.0768452), wk =   0.0204082
        k(   69) = (   0.3571429  -0.3711537   0.0768452), wk =   0.0204082
        k(   70) = (   0.3571429  -0.3711537   0.2305357), wk =   0.0204082
        k(   71) = (   0.3571429  -0.3711537  -0.2305357), wk =   0.0204082
        k(   72) = (   0.3571429  -0.3711537  -0.0768452), wk =   0.0204082
        k(   73) = (   0.3571429  -0.2061965   0.0768452), wk =   0.0204082
        k(   74) = (   0.3571429  -0.2061965   0.2305357), wk =   0.0204082
        k(   75) = (   0.3571429  -0.2061965  -0.2305357), wk =   0.0204082
        k(   76) = (   0.3571429  -0.2061965  -0.0768452), wk =   0.0204082
        k(   77) = (   0.3571429  -0.0412393   0.0768452), wk =   0.0204082
        k(   78) = (   0.3571429  -0.0412393   0.2305357), wk =   0.0204082
        k(   79) = (   0.3571429  -0.0412393  -0.2305357), wk =   0.0204082
        k(   80) = (   0.3571429  -0.0412393  -0.0768452), wk =   0.0204082
        k(   81) = (   0.3571429   0.1237179   0.0768452), wk =   0.0204082
        k(   82) = (   0.3571429   0.1237179   0.2305357), wk =   0.0204082
        k(   83) = (   0.3571429   0.1237179  -0.2305357), wk =   0.0204082
        k(   84) = (   0.3571429   0.1237179  -0.0768452), wk =   0.0204082
        k(   85) = (  -0.5000000  -0.2061965   0.0768452), wk =   0.0204082
        k(   86) = (  -0.5000000  -0.2061965   0.2305357), wk =   0.0204082
        k(   87) = (  -0.5000000  -0.2061965  -0.2305357), wk =   0.0204082
        k(   88) = (  -0.5000000  -0.2061965  -0.0768452), wk =   0.0204082
        k(   89) = (  -0.5000000  -0.0412393   0.0768452), wk =   0.0204082
        k(   90) = (  -0.5000000  -0.0412393   0.2305357), wk =   0.0204082
        k(   91) = (  -0.5000000  -0.0412393  -0.2305357), wk =   0.0204082
        k(   92) = (  -0.5000000  -0.0412393  -0.0768452), wk =   0.0204082
        k(   93) = (  -0.5000000   0.1237179   0.0768452), wk =   0.0204082
        k(   94) = (  -0.5000000   0.1237179   0.2305357), wk =   0.0204082
        k(   95) = (  -0.5000000   0.1237179  -0.2305357), wk =   0.0204082
        k(   96) = (  -0.5000000   0.1237179  -0.0768452), wk =   0.0204082
        k(   97) = (  -0.5000000  -0.8660254   0.0768452), wk =   0.0204082
        k(   98) = (  -0.5000000  -0.8660254   0.2305357), wk =   0.0204082

                       cryst. coord.
        k(    1) = (   0.0714286   0.0714286   0.1250000), wk =   0.0204082
        k(    2) = (   0.0714286   0.0714286   0.3750000), wk =   0.0204082
        k(    3) = (   0.0714286   0.0714286  -0.3750000), wk =   0.0204082
        k(    4) = (   0.0714286   0.0714286  -0.1250000), wk =   0.0204082
        k(    5) = (   0.0714286   0.2142857   0.1250000), wk =   0.0204082
        k(    6) = (   0.0714286   0.2142857   0.3750000), wk =   0.0204082
        k(    7) = (   0.0714286   0.2142857  -0.3750000), wk =   0.0204082
        k(    8) = (   0.0714286   0.2142857  -0.1250000), wk =   0.0204082
        k(    9) = (   0.0714286   0.3571429   0.1250000), wk =   0.0204082
        k(   10) = (   0.0714286   0.3571429   0.3750000), wk =   0.0204082
        k(   11) = (   0.0714286   0.3571429  -0.3750000), wk =   0.0204082
        k(   12) = (   0.0714286   0.3571429  -0.1250000), wk =   0.0204082
        k(   13) = (   0.0714286  -0.5000000   0.1250000), wk =   0.0204082
        k(   14) = (   0.0714286  -0.5000000   0.3750000), wk =   0.0204082
        k(   15) = (   0.0714286  -0.5000000  -0.3750000), wk =   0.0204082
        k(   16) = (   0.0714286  -0.5000000  -0.1250000), wk =   0.0204082
        k(   17) = (   0.0714286  -0.3571429   0.1250000), wk =   0.0204082
        k(   18) = (   0.0714286  -0.3571429   0.3750000), wk =   0.0204082
        k(   19) = (   0.0714286  -0.3571429  -0.3750000), wk =   0.0204082
        k(   20) = (   0.0714286  -0.3571429  -0.1250000), wk =   0.0204082
        k(   21) = (   0.0714286  -0.2142857   0.1250000), wk =   0.0204082
        k(   22) = (   0.0714286  -0.2142857   0.3750000), wk =   0.0204082
        k(   23) = (   0.0714286  -0.2142857  -0.3750000), wk =   0.0204082
        k(   24) = (   0.0714286  -0.2142857  -0.1250000), wk =   0.0204082
        k(   25) = (   0.0714286  -0.0714286   0.1250000), wk =   0.0204082
        k(   26) = (   0.0714286  -0.0714286   0.3750000), wk =   0.0204082
        k(   27) = (   0.0714286  -0.0714286  -0.3750000), wk =   0.0204082
        k(   28) = (   0.0714286  -0.0714286  -0.1250000), wk =   0.0204082
        k(   29) = (   0.2142857   0.0714286   0.1250000), wk =   0.0204082
        k(   30) = (   0.2142857   0.0714286   0.3750000), wk =   0.0204082
        k(   31) = (   0.2142857   0.0714286  -0.3750000), wk =   0.0204082
        k(   32) = (   0.2142857   0.0714286  -0.1250000), wk =   0.0204082
        k(   33) = (   0.2142857   0.2142857   0.1250000), wk =   0.0204082
        k(   34) = (   0.2142857   0.2142857   0.3750000), wk =   0.0204082
        k(   35) = (   0.2142857   0.2142857  -0.3750000), wk =   0.0204082
        k(   36) = (   0.2142857   0.2142857  -0.1250000), wk =   0.0204082
        k(   37) = (   0.2142857   0.3571429   0.1250000), wk =   0.0204082
        k(   38) = (   0.2142857   0.3571429   0.3750000), wk =   0.0204082
        k(   39) = (   0.2142857   0.3571429  -0.3750000), wk =   0.0204082
        k(   40) = (   0.2142857   0.3571429  -0.1250000), wk =   0.0204082
        k(   41) = (   0.2142857  -0.5000000   0.1250000), wk =   0.0204082
        k(   42) = (   0.2142857  -0.5000000   0.3750000), wk =   0.0204082
        k(   43) = (   0.2142857  -0.5000000  -0.3750000), wk =   0.0204082
        k(   44) = (   0.2142857  -0.5000000  -0.1250000), wk =   0.0204082
        k(   45) = (   0.2142857  -0.3571429   0.1250000), wk =   0.0204082
        k(   46) = (   0.2142857  -0.3571429   0.3750000), wk =   0.0204082
        k(   47) = (   0.2142857  -0.3571429  -0.3750000), wk =   0.0204082
        k(   48) = (   0.2142857  -0.3571429  -0.1250000), wk =   0.0204082
        k(   49) = (   0.2142857  -0.2142857   0.1250000), wk =   0.0204082
        k(   50) = (   0.2142857  -0.2142857   0.3750000), wk =   0.0204082
        k(   51) = (   0.2142857  -0.2142857  -0.3750000), wk =   0.0204082
        k(   52) = (   0.2142857  -0.2142857  -0.1250000), wk =   0.0204082
        k(   53) = (   0.2142857  -0.0714286   0.1250000), wk =   0.0204082
        k(   54) = (   0.2142857  -0.0714286   0.3750000), wk =   0.0204082
        k(   55) = (   0.2142857  -0.0714286  -0.3750000), wk =   0.0204082
        k(   56) = (   0.2142857  -0.0714286  -0.1250000), wk =   0.0204082
        k(   57) = (   0.3571429   0.0714286   0.1250000), wk =   0.0204082
        k(   58) = (   0.3571429   0.0714286   0.3750000), wk =   0.0204082
        k(   59) = (   0.3571429   0.0714286  -0.3750000), wk =   0.0204082
        k(   60) = (   0.3571429   0.0714286  -0.1250000), wk =   0.0204082
        k(   61) = (   0.3571429   0.2142857   0.1250000), wk =   0.0204082
        k(   62) = (   0.3571429   0.2142857   0.3750000), wk =   0.0204082
        k(   63) = (   0.3571429   0.2142857  -0.3750000), wk =   0.0204082
        k(   64) = (   0.3571429   0.2142857  -0.1250000), wk =   0.0204082
        k(   65) = (   0.3571429   0.3571429   0.1250000), wk =   0.0204082
        k(   66) = (   0.3571429   0.3571429   0.3750000), wk =   0.0204082
        k(   67) = (   0.3571429   0.3571429  -0.3750000), wk =   0.0204082
        k(   68) = (   0.3571429   0.3571429  -0.1250000), wk =   0.0204082
        k(   69) = (   0.3571429  -0.5000000   0.1250000), wk =   0.0204082
        k(   70) = (   0.3571429  -0.5000000   0.3750000), wk =   0.0204082
        k(   71) = (   0.3571429  -0.5000000  -0.3750000), wk =   0.0204082
        k(   72) = (   0.3571429  -0.5000000  -0.1250000), wk =   0.0204082
        k(   73) = (   0.3571429  -0.3571429   0.1250000), wk =   0.0204082
        k(   74) = (   0.3571429  -0.3571429   0.3750000), wk =   0.0204082
        k(   75) = (   0.3571429  -0.3571429  -0.3750000), wk =   0.0204082
        k(   76) = (   0.3571429  -0.3571429  -0.1250000), wk =   0.0204082
        k(   77) = (   0.3571429  -0.2142857   0.1250000), wk =   0.0204082
        k(   78) = (   0.3571429  -0.2142857   0.3750000), wk =   0.0204082
        k(   79) = (   0.3571429  -0.2142857  -0.3750000), wk =   0.0204082
        k(   80) = (   0.3571429  -0.2142857  -0.1250000), wk =   0.0204082
        k(   81) = (   0.3571429  -0.0714286   0.1250000), wk =   0.0204082
        k(   82) = (   0.3571429  -0.0714286   0.3750000), wk =   0.0204082
        k(   83) = (   0.3571429  -0.0714286  -0.3750000), wk =   0.0204082
        k(   84) = (   0.3571429  -0.0714286  -0.1250000), wk =   0.0204082
        k(   85) = (  -0.5000000   0.0714286   0.1250000), wk =   0.0204082
        k(   86) = (  -0.5000000   0.0714286   0.3750000), wk =   0.0204082
        k(   87) = (  -0.5000000   0.0714286  -0.3750000), wk =   0.0204082
        k(   88) = (  -0.5000000   0.0714286  -0.1250000), wk =   0.0204082
        k(   89) = (  -0.5000000   0.2142857   0.1250000), wk =   0.0204082
        k(   90) = (  -0.5000000   0.2142857   0.3750000), wk =   0.0204082
        k(   91) = (  -0.5000000   0.2142857  -0.3750000), wk =   0.0204082
        k(   92) = (  -0.5000000   0.2142857  -0.1250000), wk =   0.0204082
        k(   93) = (  -0.5000000   0.3571429   0.1250000), wk =   0.0204082
        k(   94) = (  -0.5000000   0.3571429   0.3750000), wk =   0.0204082
        k(   95) = (  -0.5000000   0.3571429  -0.3750000), wk =   0.0204082
        k(   96) = (  -0.5000000   0.3571429  -0.1250000), wk =   0.0204082
        k(   97) = (  -0.5000000  -0.5000000   0.1250000), wk =   0.0204082
        k(   98) = (  -0.5000000  -0.5000000   0.3750000), wk =   0.0204082

     Dense  grid:    35591 G-vectors     FFT dimensions: (  40,  40,  60)

     Smooth grid:    19411 G-vectors     FFT dimensions: (  30,  30,  50)

     Dynamical RAM for                 wfc:       0.67 MB

     Dynamical RAM for     wfc (w. buffer):      65.86 MB

     Dynamical RAM for           str. fact:       1.09 MB

     Dynamical RAM for           local pot:       0.00 MB

     Dynamical RAM for          nlocal pot:       1.92 MB

     Dynamical RAM for                qrad:       6.09 MB

     Dynamical RAM for          rho,v,vnew:       3.83 MB

     Dynamical RAM for               rhoin:       1.28 MB

     Dynamical RAM for            rho*nmix:       8.69 MB

     Dynamical RAM for           G-vectors:       2.18 MB

     Dynamical RAM for          h,s,v(r/c):       0.06 MB

     Dynamical RAM for          <psi|beta>:       0.01 MB

     Dynamical RAM for                 psi:       1.33 MB

     Dynamical RAM for                hpsi:       1.33 MB

     Dynamical RAM for                spsi:       1.33 MB

     Dynamical RAM for      wfcinit/wfcrot:       1.94 MB

     Dynamical RAM for           addusdens:     102.10 MB

     Dynamical RAM for          addusforce:     103.46 MB

     Dynamical RAM for         addusstress:     109.16 MB

     Estimated static dynamical RAM per process >      96.22 MB

     Estimated max dynamical RAM per process >     205.38 MB

     Initial potential from superposition of free atoms

     starting charge   35.99427, renormalised to   36.00000
     Starting wfcs are   26 randomized atomic wfcs

     total cpu time spent up to now is       13.8 secs

     Self-consistent Calculation

     iteration #  1     ecut=    60.00 Ry     beta= 0.70
     Davidson diagonalization with overlap
     ethr =  1.00E-02,  avg # of iterations =  1.0

     total cpu time spent up to now is       28.7 secs

     total energy              =    -395.21237518 Ry
     estimated scf accuracy    <       1.04189318 Ry

     iteration #  2     ecut=    60.00 Ry     beta= 0.70
     Davidson diagonalization with overlap
     ethr =  2.89E-03,  avg # of iterations =  4.0

     total cpu time spent up to now is       53.2 secs

     total energy              =    -395.51149151 Ry
     estimated scf accuracy    <       0.97171436 Ry

     iteration #  3     ecut=    60.00 Ry     beta= 0.70
     Davidson diagonalization with overlap
     ethr =  2.70E-03,  avg # of iterations =  2.7

     total cpu time spent up to now is       72.6 secs

     total energy              =    -395.65974983 Ry
     estimated scf accuracy    <       0.02389090 Ry

     iteration #  4     ecut=    60.00 Ry     beta= 0.70
     Davidson diagonalization with overlap
     ethr =  6.64E-05,  avg # of iterations =  4.1

     total cpu time spent up to now is       97.3 secs

     total energy              =    -395.68457891 Ry
     estimated scf accuracy    <       0.04386828 Ry

     iteration #  5     ecut=    60.00 Ry     beta= 0.70
     Davidson diagonalization with overlap
     ethr =  6.64E-05,  avg # of iterations =  2.0

     total cpu time spent up to now is      115.6 secs

     total energy              =    -395.68827552 Ry
     estimated scf accuracy    <       0.01059416 Ry

     iteration #  6     ecut=    60.00 Ry     beta= 0.70
     Davidson diagonalization with overlap
     ethr =  2.94E-05,  avg # of iterations =  1.0

     total cpu time spent up to now is      131.9 secs

     total energy              =    -395.68946388 Ry
     estimated scf accuracy    <       0.01018475 Ry

     iteration #  7     ecut=    60.00 Ry     beta= 0.70
     Davidson diagonalization with overlap
     ethr =  2.83E-05,  avg # of iterations =  1.0

     total cpu time spent up to now is      147.7 secs

     total energy              =    -395.68116653 Ry
     estimated scf accuracy    <       0.01263610 Ry

     iteration #  8     ecut=    60.00 Ry     beta= 0.70
     Davidson diagonalization with overlap
     ethr =  2.83E-05,  avg # of iterations =  4.0

     total cpu time spent up to now is      172.9 secs

     total energy              =    -395.68906845 Ry
     estimated scf accuracy    <       0.00453660 Ry

     iteration #  9     ecut=    60.00 Ry     beta= 0.70
     Davidson diagonalization with overlap
     ethr =  1.26E-05,  avg # of iterations =  2.0

     total cpu time spent up to now is      191.6 secs

     total energy              =    -395.68832732 Ry
     estimated scf accuracy    <       0.01114214 Ry

     iteration # 10     ecut=    60.00 Ry     beta= 0.70
     Davidson diagonalization with overlap
     ethr =  1.26E-05,  avg # of iterations =  1.0

     total cpu time spent up to now is      206.6 secs

     total energy              =    -395.68605485 Ry
     estimated scf accuracy    <       0.00897635 Ry

     iteration # 11     ecut=    60.00 Ry     beta= 0.70
     Davidson diagonalization with overlap
     ethr =  1.26E-05,  avg # of iterations =  2.0

     total cpu time spent up to now is      225.5 secs

     total energy              =    -395.68584720 Ry
     estimated scf accuracy    <       0.00300765 Ry

     iteration # 12     ecut=    60.00 Ry     beta= 0.70
     Davidson diagonalization with overlap
     ethr =  8.35E-06,  avg # of iterations =  2.0

     total cpu time spent up to now is      243.4 secs

     total energy              =    -395.68540562 Ry
     estimated scf accuracy    <       0.00116507 Ry

     iteration # 13     ecut=    60.00 Ry     beta= 0.70
     Davidson diagonalization with overlap
     ethr =  3.24E-06,  avg # of iterations =  4.0

     total cpu time spent up to now is      266.1 secs

     total energy              =    -395.68578882 Ry
     estimated scf accuracy    <       0.00007303 Ry

     iteration # 14     ecut=    60.00 Ry     beta= 0.70
     Davidson diagonalization with overlap
     ethr =  2.03E-07,  avg # of iterations =  3.0

     total cpu time spent up to now is      287.2 secs

     total energy              =    -395.68580699 Ry
     estimated scf accuracy    <       0.00000166 Ry

     iteration # 15     ecut=    60.00 Ry     beta= 0.70
     Davidson diagonalization with overlap
     ethr =  4.62E-09,  avg # of iterations =  4.5

     total cpu time spent up to now is      314.0 secs

     total energy              =    -395.68580964 Ry
     estimated scf accuracy    <       0.00001269 Ry

     iteration # 16     ecut=    60.00 Ry     beta= 0.70
     Davidson diagonalization with overlap
     ethr =  4.62E-09,  avg # of iterations =  1.0

     total cpu time spent up to now is      329.8 secs

     total energy              =    -395.68580550 Ry
     estimated scf accuracy    <       0.00001148 Ry

     iteration # 17     ecut=    60.00 Ry     beta= 0.70
     Davidson diagonalization with overlap
     ethr =  4.62E-09,  avg # of iterations =  4.0

     total cpu time spent up to now is      354.8 secs

     total energy              =    -395.68580654 Ry
     estimated scf accuracy    <       0.00000108 Ry

     iteration # 18     ecut=    60.00 Ry     beta= 0.70
     Davidson diagonalization with overlap
     ethr =  3.01E-09,  avg # of iterations =  1.9

     total cpu time spent up to now is      372.1 secs

     total energy              =    -395.68580714 Ry
     estimated scf accuracy    <       0.00000073 Ry

     iteration # 19     ecut=    60.00 Ry     beta= 0.70
     Davidson diagonalization with overlap
     ethr =  2.02E-09,  avg # of iterations =  4.0

     total cpu time spent up to now is      397.1 secs

     total energy              =    -395.68580638 Ry
     estimated scf accuracy    <       0.00000377 Ry

     iteration # 20     ecut=    60.00 Ry     beta= 0.70
     Davidson diagonalization with overlap
     ethr =  2.02E-09,  avg # of iterations =  3.9

     total cpu time spent up to now is      420.4 secs

     total energy              =    -395.68580642 Ry
     estimated scf accuracy    <       0.00000064 Ry

     iteration # 21     ecut=    60.00 Ry     beta= 0.70
     Davidson diagonalization with overlap
     ethr =  1.79E-09,  avg # of iterations =  2.1

     total cpu time spent up to now is      440.1 secs

     total energy              =    -395.68580652 Ry
     estimated scf accuracy    <          2.5E-09 Ry

     iteration # 22     ecut=    60.00 Ry     beta= 0.70
     Davidson diagonalization with overlap
     ethr =  6.82E-12,  avg # of iterations =  6.3

     total cpu time spent up to now is      474.3 secs

     total energy              =    -395.68580652 Ry
     estimated scf accuracy    <       0.00000003 Ry

     iteration # 23     ecut=    60.00 Ry     beta= 0.70
     Davidson diagonalization with overlap
     ethr =  6.82E-12,  avg # of iterations =  5.2

     total cpu time spent up to now is      507.8 secs

     total energy              =    -395.68580653 Ry
     estimated scf accuracy    <       0.00000002 Ry

     iteration # 24     ecut=    60.00 Ry     beta= 0.70
     Davidson diagonalization with overlap
     ethr =  6.82E-12,  avg # of iterations =  4.0

     total cpu time spent up to now is      533.2 secs

     total energy              =    -395.68580653 Ry
     estimated scf accuracy    <          8.4E-10 Ry

     iteration # 25     ecut=    60.00 Ry     beta= 0.70
     Davidson diagonalization with overlap
     ethr =  2.32E-12,  avg # of iterations =  3.0

     total cpu time spent up to now is      554.2 secs

     total energy              =    -395.68580653 Ry
     estimated scf accuracy    <          2.7E-11 Ry

     iteration # 26     ecut=    60.00 Ry     beta= 0.70
     Davidson diagonalization with overlap
     ethr =  1.00E-13,  avg # of iterations =  4.0

     total cpu time spent up to now is      577.9 secs

     total energy              =    -395.68580653 Ry
     estimated scf accuracy    <          2.3E-11 Ry

     iteration # 27     ecut=    60.00 Ry     beta= 0.70
     Davidson diagonalization with overlap
     ethr =  1.00E-13,  avg # of iterations =  2.0

     total cpu time spent up to now is      595.8 secs

     total energy              =    -395.68580653 Ry
     estimated scf accuracy    <          3.5E-12 Ry

     iteration # 28     ecut=    60.00 Ry     beta= 0.70
     Davidson diagonalization with overlap
     ethr =  1.00E-13,  avg # of iterations =  1.9

     total cpu time spent up to now is      613.2 secs

     total energy              =    -395.68580653 Ry
     estimated scf accuracy    <          8.8E-14 Ry

     iteration # 29     ecut=    60.00 Ry     beta= 0.70
     Davidson diagonalization with overlap
     ethr =  1.00E-13,  avg # of iterations =  1.0

     total cpu time spent up to now is      628.6 secs

     total energy              =    -395.68580653 Ry
     estimated scf accuracy    <          1.0E-13 Ry

     iteration # 30     ecut=    60.00 Ry     beta= 0.70
     Davidson diagonalization with overlap
     ethr =  1.00E-13,  avg # of iterations =  1.0

     total cpu time spent up to now is      643.9 secs

     total energy              =    -395.68580653 Ry
     estimated scf accuracy    <          5.5E-14 Ry

     iteration # 31     ecut=    60.00 Ry     beta= 0.70
     Davidson diagonalization with overlap
     ethr =  1.00E-13,  avg # of iterations =  1.0

     total cpu time spent up to now is      659.7 secs

     total energy              =    -395.68580653 Ry
     estimated scf accuracy    <          2.2E-14 Ry

     iteration # 32     ecut=    60.00 Ry     beta= 0.70
     Davidson diagonalization with overlap
     ethr =  1.00E-13,  avg # of iterations =  1.0

     total cpu time spent up to now is      674.8 secs

     total energy              =    -395.68580653 Ry
     estimated scf accuracy    <          1.5E-14 Ry

     iteration # 33     ecut=    60.00 Ry     beta= 0.70
     Davidson diagonalization with overlap
     ethr =  1.00E-13,  avg # of iterations =  1.0

     total cpu time spent up to now is      690.3 secs

     End of self-consistent calculation

          k = 0.0714 0.1237 0.0768 (  2423 PWs)   bands (ev):

    -6.0802  -5.3423  -3.7595  -3.7436  -3.7100  -3.6926  -3.6744  -3.5161
    -3.5100  -3.4428  -3.4143  -2.2132   3.1221   7.7005   8.1112   8.5027
     9.3775   9.4378

     occupation numbers 
     1.0000   1.0000   1.0000   1.0000   1.0000   1.0000   1.0000   1.0000
     1.0000   1.0000   1.0000   1.0000   1.0000   1.0000   1.0000   1.0000
     1.0000   1.0000

          k = 0.0714 0.1237 0.2305 (  2436 PWs)   bands (ev):

    -5.7931  -5.4770  -3.7412  -3.7310  -3.7155  -3.7047  -3.5990  -3.4872
    -3.4701  -3.4443  -3.4225  -2.9768   4.7672   6.7783   8.1071   8.6024
     8.8236   9.0960

     occupation numbers 
     1.0000   1.0000   1.0000   1.0000   1.0000   1.0000   1.0000   1.0000
     1.0000   1.0000   1.0000   1.0000   1.0000   1.0000   1.0000   1.0000
     1.0000   1.0000

          k = 0.0714 0.1237-0.2305 (  2436 PWs)   bands (ev):

    -5.7931  -5.4770  -3.7412  -3.7310  -3.7155  -3.7047  -3.5990  -3.4872
    -3.4701  -3.4443  -3.4225  -2.9768   4.7672   6.7783   8.1071   8.6024
     8.8236   9.0960

     occupation numbers 
     1.0000   1.0000   1.0000   1.0000   1.0000   1.0000   1.0000   1.0000
     1.0000   1.0000   1.0000   1.0000   1.0000   1.0000   1.0000   1.0000
     1.0000   1.0000

          k = 0.0714 0.1237-0.0768 (  2423 PWs)   bands (ev):

    -6.0802  -5.3423  -3.7595  -3.7436  -3.7100  -3.6926  -3.6744  -3.5161
    -3.5100  -3.4428  -3.4143  -2.2132   3.1221   7.7005   8.1112   8.5027
     9.3775   9.4378

     occupation numbers 
     1.0000   1.0000   1.0000   1.0000   1.0000   1.0000   1.0000   1.0000
     1.0000   1.0000   1.0000   1.0000   1.0000   1.0000   1.0000   1.0000
     1.0000   1.0000

          k = 0.0714 0.2887 0.0768 (  2435 PWs)   bands (ev):

    -5.7175  -5.2604  -3.7183  -3.7062  -3.6459  -3.6138  -3.5476  -3.5153
    -3.4896  -3.4301  -3.3639  -1.8925   3.6467   5.7991   6.5164   7.5999
     8.8952   8.9729

     occupation numbers 
     1.0000   1.0000   1.0000   1.0000   1.0000   1.0000   1.0000   1.0000
     1.0000   1.0000   1.0000   1.0000   1.0000   1.0000   1.0000   1.0000
     1.0000   1.0000

          k = 0.0714 0.2887 0.2305 (  2430 PWs)   bands (ev):

    -5.5194  -5.3287  -3.7103  -3.6809  -3.6746  -3.6389  -3.5495  -3.5356
    -3.4640  -3.4369  -3.1439  -2.5831   4.5645   5.5733   6.9046   7.8923
     8.2996   8.5290

     occupation numbers 
     1.0000   1.0000   1.0000   1.0000   1.0000   1.0000   1.0000   1.0000
     1.0000   1.0000   1.0000   1.0000   1.0000   1.0000   1.0000   1.0000
     1.0000   1.0000

          k = 0.0714 0.2887-0.2305 (  2430 PWs)   bands (ev):

    -5.5194  -5.3287  -3.7102  -3.6809  -3.6746  -3.6389  -3.5495  -3.5355
    -3.4640  -3.4369  -3.1439  -2.5831   4.5645   5.5733   6.9046   7.8923
     8.2996   8.5290

     occupation numbers 
     1.0000   1.0000   1.0000   1.0000   1.0000   1.0000   1.0000   1.0000
     1.0000   1.0000   1.0000   1.0000   1.0000   1.0000   1.0000   1.0000
     1.0000   1.0000

          k = 0.0714 0.2887-0.0768 (  2435 PWs)   bands (ev):

    -5.7175  -5.2604  -3.7183  -3.7062  -3.6459  -3.6138  -3.5476  -3.5152
    -3.4896  -3.4301  -3.3639  -1.8925   3.6467   5.7991   6.5164   7.5999
     8.8952   8.9729

     occupation numbers 
     1.0000   1.0000   1.0000   1.0000   1.0000   1.0000   1.0000   1.0000
     1.0000   1.0000   1.0000   1.0000   1.0000   1.0000   1.0000   1.0000
     1.0000   1.0000

          k = 0.0714 0.4536 0.0768 (  2414 PWs)   bands (ev):

    -5.4182  -5.2105  -3.7122  -3.6893  -3.6004  -3.5618  -3.5362  -3.4967
    -3.4450  -3.4040  -2.6961  -1.6251   3.4662   4.6756   5.5245   6.8958
     8.0777   8.4984

     occupation numbers 
     1.0000   1.0000   1.0000   1.0000   1.0000   1.0000   1.0000   1.0000
     1.0000   1.0000   1.0000   1.0000   1.0000   1.0000   1.0000   1.0000
     1.0000   1.0000

          k = 0.0714 0.4536 0.2305 (  2425 PWs)   bands (ev):

    -5.3148  -5.2294  -3.7165  -3.6767  -3.6409  -3.5755  -3.5267  -3.4867
    -3.4360  -3.4224  -2.4758  -2.0394   3.4115   3.9704   6.8672   7.3958
     7.8722   8.2902

     occupation numbers 
     1.0000   1.0000   1.0000   1.0000   1.0000   1.0000   1.0000   1.0000
     1.0000   1.0000   1.0000   1.0000   1.0000   1.0000   1.0000   1.0000
     1.0000   1.0000

          k = 0.0714 0.4536-0.2305 (  2425 PWs)   bands (ev):

    -5.3148  -5.2294  -3.7164  -3.6767  -3.6409  -3.5755  -3.5266  -3.4867
    -3.4361  -3.4223  -2.4758  -2.0394   3.4115   3.9705   6.8672   7.3957
     7.8722   8.2902

     occupation numbers 
     1.0000   1.0000   1.0000   1.0000   1.0000   1.0000   1.0000   1.0000
     1.0000   1.0000   1.0000   1.0000   1.0000   1.0000   1.0000   1.0000
     1.0000   1.0000

          k = 0.0714 0.4536-0.0768 (  2414 PWs)   bands (ev):

    -5.4182  -5.2105  -3.7122  -3.6893  -3.6004  -3.5617  -3.5362  -3.4967
    -3.4450  -3.4040  -2.6961  -1.6251   3.4662   4.6757   5.5245   6.8958
     8.0777   8.4984

     occupation numbers 
     1.0000   1.0000   1.0000   1.0000   1.0000   1.0000   1.0000   1.0000
     1.0000   1.0000   1.0000   1.0000   1.0000   1.0000   1.0000   1.0000
     1.0000   1.0000

          k = 0.0714-0.5361 0.0768 (  2409 PWs)   bands (ev):

    -5.3589  -5.2032  -3.7168  -3.6870  -3.5875  -3.5723  -3.5196  -3.4819
    -3.4314  -3.3996  -2.3076  -1.6967   3.2095   4.2906   5.7198   6.7786
     7.6938   8.3894

     occupation numbers 
     1.0000   1.0000   1.0000   1.0000   1.0000   1.0000   1.0000   1.0000
     1.0000   1.0000   1.0000   1.0000   1.0000   1.0000   1.0000   1.0000
     1.0000   1.0000

          k = 0.0714-0.5361 0.2305 (  2410 PWs)   bands (ev):

    -5.2764  -5.2120  -3.7217  -3.6798  -3.6373  -3.5630  -3.5169  -3.4666
    -3.4271  -3.4175  -2.1673  -1.9097   3.0307   3.4927   6.8912   7.4285
     7.7401   8.2154

     occupation numbers 
     1.0000   1.0000   1.0000   1.0000   1.0000   1.0000   1.0000   1.0000
     1.0000   1.0000   1.0000   1.0000   1.0000   1.0000   1.0000   1.0000
     1.0000   1.0000

          k = 0.0714-0.5361-0.2305 (  2410 PWs)   bands (ev):

    -5.2764  -5.2120  -3.7217  -3.6798  -3.6373  -3.5630  -3.5169  -3.4666
    -3.4271  -3.4176  -2.1673  -1.9097   3.0307   3.4927   6.8912   7.4285
     7.7401   8.2154

     occupation numbers 
     1.0000   1.0000   1.0000   1.0000   1.0000   1.0000   1.0000   1.0000
     1.0000   1.0000   1.0000   1.0000   1.0000   1.0000   1.0000   1.0000
     1.0000   1.0000

          k = 0.0714-0.5361-0.0768 (  2409 PWs)   bands (ev):

    -5.3589  -5.2032  -3.7168  -3.6870  -3.5874  -3.5723  -3.5196  -3.4819
    -3.4313  -3.3996  -2.3076  -1.6967   3.2095   4.2906   5.7198   6.7787
     7.6938   8.3894

     occupation numbers 
     1.0000   1.0000   1.0000   1.0000   1.0000   1.0000   1.0000   1.0000
     1.0000   1.0000   1.0000   1.0000   1.0000   1.0000   1.0000   1.0000
     1.0000   1.0000

          k = 0.0714-0.3712 0.0768 (  2421 PWs)   bands (ev):

    -5.5403  -5.2288  -3.7091  -3.6957  -3.6194  -3.5699  -3.5504  -3.5121
    -3.4678  -3.4110  -3.0944  -1.7133   3.7562   5.0962   5.7687   7.1825
     8.5276   8.7028

     occupation numbers 
     1.0000   1.0000   1.0000   1.0000   1.0000   1.0000   1.0000   1.0000
     1.0000   1.0000   1.0000   1.0000   1.0000   1.0000   1.0000   1.0000
     1.0000   1.0000

          k = 0.0714-0.3712 0.2305 (  2424 PWs)   bands (ev):

    -5.3961  -5.2677  -3.7099  -3.6742  -3.6526  -3.6020  -3.5387  -3.5160
    -3.4507  -3.4303  -2.8440  -2.3016   4.0267   4.7277   6.7839   7.5703
     8.0866   8.3706

     occupation numbers 
     1.0000   1.0000   1.0000   1.0000   1.0000   1.0000   1.0000   1.0000
     1.0000   1.0000   1.0000   1.0000   1.0000   1.0000   1.0000   1.0000
     1.0000   1.0000

          k = 0.0714-0.3712-0.2305 (  2424 PWs)   bands (ev):

    -5.3961  -5.2677  -3.7100  -3.6742  -3.6526  -3.6020  -3.5387  -3.5159
    -3.4506  -3.4303  -2.8440  -2.3016   4.0267   4.7276   6.7839   7.5703
     8.0865   8.3706

     occupation numbers 
     1.0000   1.0000   1.0000   1.0000   1.0000   1.0000   1.0000   1.0000
     1.0000   1.0000   1.0000   1.0000   1.0000   1.0000   1.0000   1.0000
     1.0000   1.0000

          k = 0.0714-0.3712-0.0768 (  2421 PWs)   bands (ev):

    -5.5403  -5.2288  -3.7092  -3.6957  -3.6194  -3.5700  -3.5505  -3.5121
    -3.4678  -3.4110  -3.0944  -1.7133   3.7562   5.0962   5.7687   7.1825
     8.5276   8.7028

     occupation numbers 
     1.0000   1.0000   1.0000   1.0000   1.0000   1.0000   1.0000   1.0000
     1.0000   1.0000   1.0000   1.0000   1.0000   1.0000   1.0000   1.0000
     1.0000   1.0000

          k = 0.0714-0.2062 0.0768 (  2431 PWs)   bands (ev):

    -5.9143  -5.3018  -3.7387  -3.7234  -3.6748  -3.6599  -3.6076  -3.5215
    -3.5078  -3.4622  -3.4089  -2.0746   3.3614   6.7821   7.3384   8.0794
     9.1829   9.2256

     occupation numbers 
     1.0000   1.0000   1.0000   1.0000   1.0000   1.0000   1.0000   1.0000
     1.0000   1.0000   1.0000   1.0000   1.0000   1.0000   1.0000   1.0000
     1.0000   1.0000

          k = 0.0714-0.2062 0.2305 (  2432 PWs)   bands (ev):

    -5.6645  -5.4050  -3.7236  -3.7057  -3.6954  -3.6756  -3.5770  -3.5166
    -3.4705  -3.4406  -3.3325  -2.8147   4.7729   6.3209   7.4179   8.2465
     8.5190   8.8164

     occupation numbers 
     1.0000   1.0000   1.0000   1.0000   1.0000   1.0000   1.0000   1.0000
     1.0000   1.0000   1.0000   1.0000   1.0000   1.0000   1.0000   1.0000
     1.0000   1.0000

          k = 0.0714-0.2062-0.2305 (  2432 PWs)   bands (ev):

    -5.6645  -5.4050  -3.7237  -3.7057  -3.6954  -3.6756  -3.5770  -3.5166
    -3.4705  -3.4406  -3.3325  -2.8147   4.7729   6.3210   7.4178   8.2465
     8.5190   8.8164

     occupation numbers 
     1.0000   1.0000   1.0000   1.0000   1.0000   1.0000   1.0000   1.0000
     1.0000   1.0000   1.0000   1.0000   1.0000   1.0000   1.0000   1.0000
     1.0000   1.0000

          k = 0.0714-0.2062-0.0768 (  2431 PWs)   bands (ev):

    -5.9143  -5.3018  -3.7387  -3.7234  -3.6747  -3.6600  -3.6076  -3.5215
    -3.5078  -3.4622  -3.4089  -2.0746   3.3614   6.7822   7.3383   8.0794
     9.1829   9.2256

     occupation numbers 
     1.0000   1.0000   1.0000   1.0000   1.0000   1.0000   1.0000   1.0000
     1.0000   1.0000   1.0000   1.0000   1.0000   1.0000   1.0000   1.0000
     1.0000   1.0000

          k = 0.0714-0.0412 0.0768 (  2435 PWs)   bands (ev):

    -6.1736  -5.3676  -3.7694  -3.7571  -3.7417  -3.7027  -3.6983  -3.5114
    -3.5088  -3.4270  -3.4164  -2.2872   2.9928   8.2805   8.5550   8.8331
     9.4884   9.5684

     occupation numbers 
     1.0000   1.0000   1.0000   1.0000   1.0000   1.0000   1.0000   1.0000
     1.0000   1.0000   1.0000   1.0000   1.0000   1.0000   1.0000   1.0000
     1.0000   1.0000

          k = 0.0714-0.0412 0.2305 (  2435 PWs)   bands (ev):

    -5.8680  -5.5209  -3.7508  -3.7467  -3.7265  -3.7221  -3.6121  -3.4756
    -3.4645  -3.4534  -3.4376  -3.0640   4.7288   6.9486   8.6068   8.8396
     9.0944   9.2591

     occupation numbers 
     1.0000   1.0000   1.0000   1.0000   1.0000   1.0000   1.0000   1.0000
     1.0000   1.0000   1.0000   1.0000   1.0000   1.0000   1.0000   1.0000
     1.0000   1.0000

          k = 0.0714-0.0412-0.2305 (  2435 PWs)   bands (ev):

    -5.8680  -5.5209  -3.7508  -3.7467  -3.7265  -3.7221  -3.6121  -3.4756
    -3.4644  -3.4535  -3.4376  -3.0640   4.7288   6.9486   8.6068   8.8396
     9.0944   9.2591

     occupation numbers 
     1.0000   1.0000   1.0000   1.0000   1.0000   1.0000   1.0000   1.0000
     1.0000   1.0000   1.0000   1.0000   1.0000   1.0000   1.0000   1.0000
     1.0000   1.0000

          k = 0.0714-0.0412-0.0768 (  2435 PWs)   bands (ev):

    -6.1736  -5.3676  -3.7694  -3.7571  -3.7417  -3.7027  -3.6983  -3.5114
    -3.5088  -3.4270  -3.4164  -2.2872   2.9928   8.2805   8.5550   8.8331
     9.4884   9.5684

     occupation numbers 
     1.0000   1.0000   1.0000   1.0000   1.0000   1.0000   1.0000   1.0000
     1.0000   1.0000   1.0000   1.0000   1.0000   1.0000   1.0000   1.0000
     1.0000   1.0000

          k = 0.2143 0.2062 0.0768 (  2435 PWs)   bands (ev):

    -5.7175  -5.2604  -3.7183  -3.7062  -3.6459  -3.6138  -3.5476  -3.5152
    -3.4896  -3.4301  -3.3639  -1.8925   3.6467   5.7991   6.5164   7.5999
     8.8952   8.9729

     occupation numbers 
     1.0000   1.0000   1.0000   1.0000   1.0000   1.0000   1.0000   1.0000
     1.0000   1.0000   1.0000   1.0000   1.0000   1.0000   1.0000   1.0000
     1.0000   1.0000

          k = 0.2143 0.2062 0.2305 (  2430 PWs)   bands (ev):

    -5.5194  -5.3287  -3.7102  -3.6809  -3.6746  -3.6389  -3.5495  -3.5355
    -3.4640  -3.4369  -3.1439  -2.5831   4.5645   5.5733   6.9046   7.8923
     8.2996   8.5290

     occupation numbers 
     1.0000   1.0000   1.0000   1.0000   1.0000   1.0000   1.0000   1.0000
     1.0000   1.0000   1.0000   1.0000   1.0000   1.0000   1.0000   1.0000
     1.0000   1.0000

          k = 0.2143 0.2062-0.2305 (  2430 PWs)   bands (ev):

    -5.5194  -5.3287  -3.7103  -3.6809  -3.6746  -3.6389  -3.5495  -3.5356
    -3.4640  -3.4369  -3.1439  -2.5831   4.5645   5.5733   6.9046   7.8923
     8.2996   8.5290

     occupation numbers 
     1.0000   1.0000   1.0000   1.0000   1.0000   1.0000   1.0000   1.0000
     1.0000   1.0000   1.0000   1.0000   1.0000   1.0000   1.0000   1.0000
     1.0000   1.0000

          k = 0.2143 0.2062-0.0768 (  2435 PWs)   bands (ev):

    -5.7175  -5.2604  -3.7183  -3.7062  -3.6459  -3.6138  -3.5476  -3.5153
    -3.4896  -3.4301  -3.3639  -1.8925   3.6467   5.7991   6.5164   7.5999
     8.8952   8.9729

     occupation numbers 
     1.0000   1.0000   1.0000   1.0000   1.0000   1.0000   1.0000   1.0000
     1.0000   1.0000   1.0000   1.0000   1.0000   1.0000   1.0000   1.0000
     1.0000   1.0000

          k = 0.2143 0.3712 0.0768 (  2422 PWs)   bands (ev):

    -5.4418  -5.2156  -3.7244  -3.6614  -3.5995  -3.5838  -3.5337  -3.5158
    -3.4528  -3.4334  -2.8352  -1.5924   3.8544   5.0018   5.6163   6.3401
     7.9303   8.3375

     occupation numbers 
     1.0000   1.0000   1.0000   1.0000   1.0000   1.0000   1.0000   1.0000
     1.0000   1.0000   1.0000   1.0000   1.0000   1.0000   1.0000   1.0000
     1.0000   1.0000

          k = 0.2143 0.3712 0.2305 (  2426 PWs)   bands (ev):

    -5.3292  -5.2367  -3.6787  -3.6757  -3.6352  -3.6095  -3.5436  -3.5261
    -3.4426  -3.4339  -2.5905  -2.0927   3.9077   4.4507   6.5505   7.0347
     7.3577   8.3763

     occupation numbers 
     1.0000   1.0000   1.0000   1.0000   1.0000   1.0000   1.0000   1.0000
     1.0000   1.0000   1.0000   1.0000   1.0000   1.0000   1.0000   1.0000
     1.0000   1.0000

          k = 0.2143 0.3712-0.2305 (  2426 PWs)   bands (ev):

    -5.3292  -5.2367  -3.6787  -3.6757  -3.6352  -3.6095  -3.5436  -3.5261
    -3.4426  -3.4339  -2.5905  -2.0927   3.9077   4.4507   6.5505   7.0347
     7.3577   8.3763

     occupation numbers 
     1.0000   1.0000   1.0000   1.0000   1.0000   1.0000   1.0000   1.0000
     1.0000   1.0000   1.0000   1.0000   1.0000   1.0000   1.0000   1.0000
     1.0000   1.0000

          k = 0.2143 0.3712-0.0768 (  2422 PWs)   bands (ev):

    -5.4418  -5.2156  -3.7244  -3.6614  -3.5995  -3.5838  -3.5337  -3.5158
    -3.4528  -3.4334  -2.8352  -1.5924   3.8544   5.0018   5.6163   6.3401
     7.9303   8.3375

     occupation numbers 
     1.0000   1.0000   1.0000   1.0000   1.0000   1.0000   1.0000   1.0000
     1.0000   1.0000   1.0000   1.0000   1.0000   1.0000   1.0000   1.0000
     1.0000   1.0000

          k = 0.2143 0.5361 0.0768 (  2415 PWs)   bands (ev):

    -5.2965  -5.2083  -3.7427  -3.6364  -3.5733  -3.5420  -3.5360  -3.4960
    -3.4574  -3.4319  -2.0823  -1.5990   3.6177   4.3414   5.2395   6.3590
     7.2744   7.5380

     occupation numbers 
     1.0000   1.0000   1.0000   1.0000   1.0000   1.0000   1.0000   1.0000
     1.0000   1.0000   1.0000   1.0000   1.0000   1.0000   1.0000   1.0000
     1.0000   1.0000

          k = 0.2143 0.5361 0.2305 (  2405 PWs)   bands (ev):

    -5.2362  -5.2000  -3.6833  -3.6582  -3.6435  -3.5770  -3.5112  -3.4904
    -3.4529  -3.4444  -1.9570  -1.7520   3.3444   3.6532   5.6780   6.5270
     7.6501   8.2110

     occupation numbers 
     1.0000   1.0000   1.0000   1.0000   1.0000   1.0000   1.0000   1.0000
     1.0000   1.0000   1.0000   1.0000   1.0000   1.0000   1.0000   1.0000
     1.0000   1.0000

          k = 0.2143 0.5361-0.2305 (  2405 PWs)   bands (ev):

    -5.2362  -5.2000  -3.6833  -3.6582  -3.6435  -3.5770  -3.5112  -3.4904
    -3.4530  -3.4444  -1.9570  -1.7520   3.3444   3.6532   5.6780   6.5270
     7.6501   8.2110

     occupation numbers 
     1.0000   1.0000   1.0000   1.0000   1.0000   1.0000   1.0000   1.0000
     1.0000   1.0000   1.0000   1.0000   1.0000   1.0000   1.0000   1.0000
     1.0000   1.0000

          k = 0.2143 0.5361-0.0768 (  2415 PWs)   bands (ev):

    -5.2965  -5.2083  -3.7427  -3.6364  -3.5734  -3.5419  -3.5359  -3.4960
    -3.4574  -3.4319  -2.0823  -1.5990   3.6177   4.3414   5.2395   6.3590
     7.2744   7.5380

     occupation numbers 
     1.0000   1.0000   1.0000   1.0000   1.0000   1.0000   1.0000   1.0000
     1.0000   1.0000   1.0000   1.0000   1.0000   1.0000   1.0000   1.0000
     1.0000   1.0000

          k = 0.2143-0.4536 0.0768 (  2415 PWs)   bands (ev):

    -5.3474  -5.2075  -3.7360  -3.6428  -3.5823  -3.5603  -3.5320  -3.5124
    -3.4487  -3.4329  -2.4408  -1.5292   3.7540   4.5132   5.6577   5.9769
     7.5210   7.9157

     occupation numbers 
     1.0000   1.0000   1.0000   1.0000   1.0000   1.0000   1.0000   1.0000
     1.0000   1.0000   1.0000   1.0000   1.0000   1.0000   1.0000   1.0000
     1.0000   1.0000

          k = 0.2143-0.4536 0.2305 (  2420 PWs)   bands (ev):

    -5.2679  -5.2107  -3.6803  -3.6678  -3.6343  -3.5877  -3.5282  -3.5131
    -3.4466  -3.4330  -2.2357  -1.8594   3.5610   3.9567   5.9897   6.7681
     7.4192   8.3150

     occupation numbers 
     1.0000   1.0000   1.0000   1.0000   1.0000   1.0000   1.0000   1.0000
     1.0000   1.0000   1.0000   1.0000   1.0000   1.0000   1.0000   1.0000
     1.0000   1.0000

          k = 0.2143-0.4536-0.2305 (  2420 PWs)   bands (ev):

    -5.2679  -5.2107  -3.6803  -3.6677  -3.6343  -3.5877  -3.5282  -3.5132
    -3.4465  -3.4330  -2.2357  -1.8594   3.5610   3.9567   5.9897   6.7681
     7.4192   8.3150

     occupation numbers 
     1.0000   1.0000   1.0000   1.0000   1.0000   1.0000   1.0000   1.0000
     1.0000   1.0000   1.0000   1.0000   1.0000   1.0000   1.0000   1.0000
     1.0000   1.0000

          k = 0.2143-0.4536-0.0768 (  2415 PWs)   bands (ev):

    -5.3474  -5.2075  -3.7360  -3.6428  -3.5823  -3.5604  -3.5321  -3.5124
    -3.4487  -3.4329  -2.4408  -1.5292   3.7540   4.5132   5.6577   5.9770
     7.5210   7.9157

     occupation numbers 
     1.0000   1.0000   1.0000   1.0000   1.0000   1.0000   1.0000   1.0000
     1.0000   1.0000   1.0000   1.0000   1.0000   1.0000   1.0000   1.0000
     1.0000   1.0000

          k = 0.2143-0.2887 0.0768 (  2422 PWs)   bands (ev):

    -5.5723  -5.2344  -3.7122  -3.6908  -3.6227  -3.5994  -3.5415  -3.5110
    -3.4685  -3.4314  -3.1588  -1.7378   3.8162   5.4704   5.8134   7.0245
     8.4478   8.6861

     occupation numbers 
     1.0000   1.0000   1.0000   1.0000   1.0000   1.0000   1.0000   1.0000
     1.0000   1.0000   1.0000   1.0000   1.0000   1.0000   1.0000   1.0000
     1.0000   1.0000

          k = 0.2143-0.2887 0.2305 (  2430 PWs)   bands (ev):

    -5.4174  -5.2780  -3.6937  -3.6745  -3.6537  -3.6261  -3.5450  -3.5345
    -3.4478  -3.4396  -2.9111  -2.3577   4.2739   5.0186   6.8826   7.2699
     7.8952   8.3925

     occupation numbers 
     1.0000   1.0000   1.0000   1.0000   1.0000   1.0000   1.0000   1.0000
     1.0000   1.0000   1.0000   1.0000   1.0000   1.0000   1.0000   1.0000
     1.0000   1.0000

          k = 0.2143-0.2887-0.2305 (  2430 PWs)   bands (ev):

    -5.4174  -5.2780  -3.6936  -3.6746  -3.6538  -3.6261  -3.5450  -3.5345
    -3.4479  -3.4396  -2.9111  -2.3577   4.2739   5.0186   6.8826   7.2698
     7.8952   8.3925

     occupation numbers 
     1.0000   1.0000   1.0000   1.0000   1.0000   1.0000   1.0000   1.0000
     1.0000   1.0000   1.0000   1.0000   1.0000   1.0000   1.0000   1.0000
     1.0000   1.0000

          k = 0.2143-0.2887-0.0768 (  2422 PWs)   bands (ev):

    -5.5723  -5.2344  -3.7122  -3.6908  -3.6228  -3.5993  -3.5414  -3.5110
    -3.4686  -3.4314  -3.1588  -1.7378   3.8162   5.4704   5.8134   7.0245
     8.4478   8.6861

     occupation numbers 
     1.0000   1.0000   1.0000   1.0000   1.0000   1.0000   1.0000   1.0000
     1.0000   1.0000   1.0000   1.0000   1.0000   1.0000   1.0000   1.0000
     1.0000   1.0000

          k = 0.2143-0.1237 0.0768 (  2422 PWs)   bands (ev):

    -5.8425  -5.2859  -3.7339  -3.7130  -3.6657  -3.6295  -3.5831  -3.5281
    -3.5020  -3.4513  -3.4101  -2.0114   3.4669   6.2891   7.1332   7.9153
     9.0891   9.2150

     occupation numbers 
     1.0000   1.0000   1.0000   1.0000   1.0000   1.0000   1.0000   1.0000
     1.0000   1.0000   1.0000   1.0000   1.0000   1.0000   1.0000   1.0000
     1.0000   1.0000

          k = 0.2143-0.1237 0.2305 (  2428 PWs)   bands (ev):

    -5.6106  -5.3761  -3.7205  -3.6919  -3.6917  -3.6571  -3.5662  -3.5246
    -3.4731  -3.4351  -3.2781  -2.7376   4.7214   6.0401   7.1308   8.2673
     8.3498   8.8028

     occupation numbers 
     1.0000   1.0000   1.0000   1.0000   1.0000   1.0000   1.0000   1.0000
     1.0000   1.0000   1.0000   1.0000   1.0000   1.0000   1.0000   1.0000
     1.0000   1.0000

          k = 0.2143-0.1237-0.2305 (  2428 PWs)   bands (ev):

    -5.6106  -5.3761  -3.7205  -3.6919  -3.6918  -3.6571  -3.5663  -3.5245
    -3.4731  -3.4351  -3.2782  -2.7376   4.7214   6.0401   7.1308   8.2673
     8.3498   8.8028

     occupation numbers 
     1.0000   1.0000   1.0000   1.0000   1.0000   1.0000   1.0000   1.0000
     1.0000   1.0000   1.0000   1.0000   1.0000   1.0000   1.0000   1.0000
     1.0000   1.0000

          k = 0.2143-0.1237-0.0768 (  2422 PWs)   bands (ev):

    -5.8425  -5.2859  -3.7339  -3.7130  -3.6657  -3.6295  -3.5831  -3.5281
    -3.5020  -3.4513  -3.4101  -2.0114   3.4669   6.2891   7.1332   7.9153
     9.0891   9.2150

     occupation numbers 
     1.0000   1.0000   1.0000   1.0000   1.0000   1.0000   1.0000   1.0000
     1.0000   1.0000   1.0000   1.0000   1.0000   1.0000   1.0000   1.0000
     1.0000   1.0000

          k = 0.2143 0.0412 0.0768 (  2431 PWs)   bands (ev):

    -5.9143  -5.3018  -3.7387  -3.7234  -3.6748  -3.6599  -3.6076  -3.5215
    -3.5078  -3.4622  -3.4089  -2.0746   3.3614   6.7821   7.3384   8.0794
     9.1829   9.2256

     occupation numbers 
     1.0000   1.0000   1.0000   1.0000   1.0000   1.0000   1.0000   1.0000
     1.0000   1.0000   1.0000   1.0000   1.0000   1.0000   1.0000   1.0000
     1.0000   1.0000

          k = 0.2143 0.0412 0.2305 (  2432 PWs)   bands (ev):

    -5.6645  -5.4050  -3.7236  -3.7057  -3.6954  -3.6756  -3.5770  -3.5166
    -3.4705  -3.4406  -3.3325  -2.8147   4.7729   6.3209   7.4179   8.2465
     8.5190   8.8164

     occupation numbers 
     1.0000   1.0000   1.0000   1.0000   1.0000   1.0000   1.0000   1.0000
     1.0000   1.0000   1.0000   1.0000   1.0000   1.0000   1.0000   1.0000
     1.0000   1.0000

          k = 0.2143 0.0412-0.2305 (  2432 PWs)   bands (ev):

    -5.6645  -5.4050  -3.7237  -3.7057  -3.6954  -3.6756  -3.5770  -3.5166
    -3.4705  -3.4406  -3.3325  -2.8147   4.7729   6.3210   7.4178   8.2465
     8.5190   8.8164

     occupation numbers 
     1.0000   1.0000   1.0000   1.0000   1.0000   1.0000   1.0000   1.0000
     1.0000   1.0000   1.0000   1.0000   1.0000   1.0000   1.0000   1.0000
     1.0000   1.0000

          k = 0.2143 0.0412-0.0768 (  2431 PWs)   bands (ev):

    -5.9143  -5.3018  -3.7387  -3.7234  -3.6747  -3.6600  -3.6076  -3.5215
    -3.5078  -3.4622  -3.4089  -2.0746   3.3614   6.7822   7.3383   8.0794
     9.1829   9.2256

     occupation numbers 
     1.0000   1.0000   1.0000   1.0000   1.0000   1.0000   1.0000   1.0000
     1.0000   1.0000   1.0000   1.0000   1.0000   1.0000   1.0000   1.0000
     1.0000   1.0000

          k = 0.3571 0.2887 0.0768 (  2414 PWs)   bands (ev):

    -5.4182  -5.2105  -3.7122  -3.6893  -3.6004  -3.5617  -3.5362  -3.4967
    -3.4450  -3.4040  -2.6961  -1.6251   3.4662   4.6757   5.5245   6.8958
     8.0777   8.4984

     occupation numbers 
     1.0000   1.0000   1.0000   1.0000   1.0000   1.0000   1.0000   1.0000
     1.0000   1.0000   1.0000   1.0000   1.0000   1.0000   1.0000   1.0000
     1.0000   1.0000

          k = 0.3571 0.2887 0.2305 (  2425 PWs)   bands (ev):

    -5.3148  -5.2294  -3.7164  -3.6767  -3.6409  -3.5755  -3.5266  -3.4867
    -3.4361  -3.4223  -2.4758  -2.0394   3.4115   3.9705   6.8672   7.3957
     7.8722   8.2902

     occupation numbers 
     1.0000   1.0000   1.0000   1.0000   1.0000   1.0000   1.0000   1.0000
     1.0000   1.0000   1.0000   1.0000   1.0000   1.0000   1.0000   1.0000
     1.0000   1.0000

          k = 0.3571 0.2887-0.2305 (  2425 PWs)   bands (ev):

    -5.3148  -5.2294  -3.7165  -3.6767  -3.6409  -3.5755  -3.5267  -3.4867
    -3.4360  -3.4224  -2.4758  -2.0394   3.4115   3.9704   6.8672   7.3958
     7.8722   8.2902

     occupation numbers 
     1.0000   1.0000   1.0000   1.0000   1.0000   1.0000   1.0000   1.0000
     1.0000   1.0000   1.0000   1.0000   1.0000   1.0000   1.0000   1.0000
     1.0000   1.0000

          k = 0.3571 0.2887-0.0768 (  2414 PWs)   bands (ev):

    -5.4182  -5.2105  -3.7122  -3.6893  -3.6004  -3.5618  -3.5362  -3.4967
    -3.4450  -3.4040  -2.6961  -1.6251   3.4662   4.6756   5.5245   6.8958
     8.0777   8.4984

     occupation numbers 
     1.0000   1.0000   1.0000   1.0000   1.0000   1.0000   1.0000   1.0000
     1.0000   1.0000   1.0000   1.0000   1.0000   1.0000   1.0000   1.0000
     1.0000   1.0000

          k = 0.3571 0.4536 0.0768 (  2415 PWs)   bands (ev):

    -5.2965  -5.2083  -3.7427  -3.6364  -3.5734  -3.5419  -3.5359  -3.4960
    -3.4574  -3.4319  -2.0823  -1.5990   3.6177   4.3414   5.2395   6.3590
     7.2744   7.5380

     occupation numbers 
     1.0000   1.0000   1.0000   1.0000   1.0000   1.0000   1.0000   1.0000
     1.0000   1.0000   1.0000   1.0000   1.0000   1.0000   1.0000   1.0000
     1.0000   1.0000

          k = 0.3571 0.4536 0.2305 (  2405 PWs)   bands (ev):

    -5.2362  -5.2000  -3.6833  -3.6582  -3.6435  -3.5770  -3.5112  -3.4904
    -3.4530  -3.4444  -1.9570  -1.7520   3.3444   3.6532   5.6780   6.5270
     7.6501   8.2110

     occupation numbers 
     1.0000   1.0000   1.0000   1.0000   1.0000   1.0000   1.0000   1.0000
     1.0000   1.0000   1.0000   1.0000   1.0000   1.0000   1.0000   1.0000
     1.0000   1.0000

          k = 0.3571 0.4536-0.2305 (  2405 PWs)   bands (ev):

    -5.2362  -5.2000  -3.6833  -3.6582  -3.6435  -3.5770  -3.5112  -3.4904
    -3.4529  -3.4444  -1.9570  -1.7520   3.3444   3.6532   5.6780   6.5270
     7.6501   8.2110

     occupation numbers 
     1.0000   1.0000   1.0000   1.0000   1.0000   1.0000   1.0000   1.0000
     1.0000   1.0000   1.0000   1.0000   1.0000   1.0000   1.0000   1.0000
     1.0000   1.0000

          k = 0.3571 0.4536-0.0768 (  2415 PWs)   bands (ev):

    -5.2965  -5.2083  -3.7427  -3.6364  -3.5733  -3.5420  -3.5360  -3.4960
    -3.4574  -3.4319  -2.0823  -1.5990   3.6177   4.3414   5.2395   6.3590
     7.2744   7.5380

     occupation numbers 
     1.0000   1.0000   1.0000   1.0000   1.0000   1.0000   1.0000   1.0000
     1.0000   1.0000   1.0000   1.0000   1.0000   1.0000   1.0000   1.0000
     1.0000   1.0000

          k = 0.3571 0.6186 0.0768 (  2414 PWs)   bands (ev):

    -5.2549  -5.2215  -3.7537  -3.5990  -3.5725  -3.5450  -3.5211  -3.5016
    -3.4775  -3.4430  -1.8447  -1.6524   3.9450   4.2793   4.6478   6.7115
     6.8843   7.1847

     occupation numbers 
     1.0000   1.0000   1.0000   1.0000   1.0000   1.0000   1.0000   1.0000
     1.0000   1.0000   1.0000   1.0000   1.0000   1.0000   1.0000   1.0000
     1.0000   1.0000

          k = 0.3571 0.6186 0.2305 (  2406 PWs)   bands (ev):

    -5.2124  -5.1987  -3.6812  -3.6437  -3.6358  -3.5802  -3.4977  -3.4905
    -3.4686  -3.4651  -1.7845  -1.7022   3.5195   3.6469   5.1494   6.0670
     7.8677   8.0927

     occupation numbers 
     1.0000   1.0000   1.0000   1.0000   1.0000   1.0000   1.0000   1.0000
     1.0000   1.0000   1.0000   1.0000   1.0000   1.0000   1.0000   1.0000
     1.0000   1.0000

          k = 0.3571 0.6186-0.2305 (  2406 PWs)   bands (ev):

    -5.2124  -5.1987  -3.6812  -3.6437  -3.6358  -3.5802  -3.4977  -3.4905
    -3.4686  -3.4651  -1.7845  -1.7022   3.5195   3.6469   5.1494   6.0670
     7.8677   8.0927

     occupation numbers 
     1.0000   1.0000   1.0000   1.0000   1.0000   1.0000   1.0000   1.0000
     1.0000   1.0000   1.0000   1.0000   1.0000   1.0000   1.0000   1.0000
     1.0000   1.0000

          k = 0.3571 0.6186-0.0768 (  2414 PWs)   bands (ev):

    -5.2549  -5.2215  -3.7537  -3.5990  -3.5725  -3.5450  -3.5211  -3.5016
    -3.4775  -3.4430  -1.8447  -1.6524   3.9450   4.2793   4.6478   6.7115
     6.8843   7.1847

     occupation numbers 
     1.0000   1.0000   1.0000   1.0000   1.0000   1.0000   1.0000   1.0000
     1.0000   1.0000   1.0000   1.0000   1.0000   1.0000   1.0000   1.0000
     1.0000   1.0000

          k = 0.3571-0.3712 0.0768 (  2415 PWs)   bands (ev):

    -5.3527  -5.2054  -3.7246  -3.6722  -3.5848  -3.5538  -3.5340  -3.4950
    -3.4435  -3.4164  -2.3905  -1.5946   3.4525   4.4617   5.6631   6.3290
     7.7671   7.9724

     occupation numbers 
     1.0000   1.0000   1.0000   1.0000   1.0000   1.0000   1.0000   1.0000
     1.0000   1.0000   1.0000   1.0000   1.0000   1.0000   1.0000   1.0000
     1.0000   1.0000

          k = 0.3571-0.3712 0.2305 (  2418 PWs)   bands (ev):

    -5.2718  -5.2112  -3.7006  -3.6678  -3.6459  -3.5742  -3.5200  -3.4879
    -3.4381  -3.4292  -2.2093  -1.8779   3.2869   3.7375   6.3971   7.1894
     7.4478   8.2792

     occupation numbers 
     1.0000   1.0000   1.0000   1.0000   1.0000   1.0000   1.0000   1.0000
     1.0000   1.0000   1.0000   1.0000   1.0000   1.0000   1.0000   1.0000
     1.0000   1.0000

          k = 0.3571-0.3712-0.2305 (  2418 PWs)   bands (ev):

    -5.2718  -5.2112  -3.7006  -3.6678  -3.6459  -3.5742  -3.5200  -3.4879
    -3.4382  -3.4291  -2.2093  -1.8779   3.2869   3.7375   6.3971   7.1894
     7.4478   8.2792

     occupation numbers 
     1.0000   1.0000   1.0000   1.0000   1.0000   1.0000   1.0000   1.0000
     1.0000   1.0000   1.0000   1.0000   1.0000   1.0000   1.0000   1.0000
     1.0000   1.0000

          k = 0.3571-0.3712-0.0768 (  2415 PWs)   bands (ev):

    -5.3527  -5.2054  -3.7246  -3.6722  -3.5849  -3.5537  -3.5340  -3.4950
    -3.4435  -3.4164  -2.3905  -1.5946   3.4525   4.4617   5.6632   6.3290
     7.7671   7.9724

     occupation numbers 
     1.0000   1.0000   1.0000   1.0000   1.0000   1.0000   1.0000   1.0000
     1.0000   1.0000   1.0000   1.0000   1.0000   1.0000   1.0000   1.0000
     1.0000   1.0000

          k = 0.3571-0.2062 0.0768 (  2417 PWs)   bands (ev):

    -5.4847  -5.2197  -3.7150  -3.6862  -3.6142  -3.5604  -3.5471  -3.5034
    -3.4575  -3.4002  -2.9414  -1.6710   3.6091   4.8807   5.5347   7.2476
     8.3216   8.7742

     occupation numbers 
     1.0000   1.0000   1.0000   1.0000   1.0000   1.0000   1.0000   1.0000
     1.0000   1.0000   1.0000   1.0000   1.0000   1.0000   1.0000   1.0000
     1.0000   1.0000

          k = 0.3571-0.2062 0.2305 (  2424 PWs)   bands (ev):

    -5.3590  -5.2499  -3.7199  -3.6783  -3.6430  -3.5841  -3.5325  -3.4943
    -3.4456  -3.4227  -2.6983  -2.1911   3.6884   4.3279   6.8254   7.6523
     8.2060   8.2789

     occupation numbers 
     1.0000   1.0000   1.0000   1.0000   1.0000   1.0000   1.0000   1.0000
     1.0000   1.0000   1.0000   1.0000   1.0000   1.0000   1.0000   1.0000
     1.0000   1.0000

          k = 0.3571-0.2062-0.2305 (  2424 PWs)   bands (ev):

    -5.3590  -5.2499  -3.7199  -3.6784  -3.6430  -3.5841  -3.5325  -3.4944
    -3.4457  -3.4227  -2.6983  -2.1911   3.6884   4.3279   6.8254   7.6523
     8.2059   8.2789

     occupation numbers 
     1.0000   1.0000   1.0000   1.0000   1.0000   1.0000   1.0000   1.0000
     1.0000   1.0000   1.0000   1.0000   1.0000   1.0000   1.0000   1.0000
     1.0000   1.0000

          k = 0.3571-0.2062-0.0768 (  2417 PWs)   bands (ev):

    -5.4847  -5.2197  -3.7150  -3.6862  -3.6142  -3.5603  -3.5471  -3.5035
    -3.4575  -3.4002  -2.9414  -1.6710   3.6091   4.8807   5.5348   7.2476
     8.3216   8.7742

     occupation numbers 
     1.0000   1.0000   1.0000   1.0000   1.0000   1.0000   1.0000   1.0000
     1.0000   1.0000   1.0000   1.0000   1.0000   1.0000   1.0000   1.0000
     1.0000   1.0000

          k = 0.3571-0.0412 0.0768 (  2422 PWs)   bands (ev):

    -5.5723  -5.2344  -3.7122  -3.6908  -3.6227  -3.5994  -3.5415  -3.5110
    -3.4685  -3.4314  -3.1588  -1.7378   3.8162   5.4704   5.8134   7.0245
     8.4478   8.6861

     occupation numbers 
     1.0000   1.0000   1.0000   1.0000   1.0000   1.0000   1.0000   1.0000
     1.0000   1.0000   1.0000   1.0000   1.0000   1.0000   1.0000   1.0000
     1.0000   1.0000

          k = 0.3571-0.0412 0.2305 (  2430 PWs)   bands (ev):

    -5.4174  -5.2780  -3.6937  -3.6745  -3.6537  -3.6261  -3.5450  -3.5345
    -3.4478  -3.4396  -2.9111  -2.3577   4.2739   5.0186   6.8826   7.2699
     7.8952   8.3925

     occupation numbers 
     1.0000   1.0000   1.0000   1.0000   1.0000   1.0000   1.0000   1.0000
     1.0000   1.0000   1.0000   1.0000   1.0000   1.0000   1.0000   1.0000
     1.0000   1.0000

          k = 0.3571-0.0412-0.2305 (  2430 PWs)   bands (ev):

    -5.4174  -5.2780  -3.6936  -3.6746  -3.6538  -3.6261  -3.5450  -3.5345
    -3.4479  -3.4396  -2.9111  -2.3577   4.2739   5.0186   6.8826   7.2698
     7.8952   8.3925

     occupation numbers 
     1.0000   1.0000   1.0000   1.0000   1.0000   1.0000   1.0000   1.0000
     1.0000   1.0000   1.0000   1.0000   1.0000   1.0000   1.0000   1.0000
     1.0000   1.0000

          k = 0.3571-0.0412-0.0768 (  2422 PWs)   bands (ev):

    -5.5723  -5.2344  -3.7122  -3.6908  -3.6228  -3.5993  -3.5414  -3.5110
    -3.4686  -3.4314  -3.1588  -1.7378   3.8162   5.4704   5.8134   7.0245
     8.4478   8.6861

     occupation numbers 
     1.0000   1.0000   1.0000   1.0000   1.0000   1.0000   1.0000   1.0000
     1.0000   1.0000   1.0000   1.0000   1.0000   1.0000   1.0000   1.0000
     1.0000   1.0000

          k = 0.3571 0.1237 0.0768 (  2421 PWs)   bands (ev):

    -5.5403  -5.2288  -3.7091  -3.6957  -3.6194  -3.5699  -3.5504  -3.5121
    -3.4678  -3.4110  -3.0944  -1.7133   3.7562   5.0962   5.7687   7.1825
     8.5276   8.7028

     occupation numbers 
     1.0000   1.0000   1.0000   1.0000   1.0000   1.0000   1.0000   1.0000
     1.0000   1.0000   1.0000   1.0000   1.0000   1.0000   1.0000   1.0000
     1.0000   1.0000

          k = 0.3571 0.1237 0.2305 (  2424 PWs)   bands (ev):

    -5.3961  -5.2677  -3.7099  -3.6742  -3.6526  -3.6020  -3.5387  -3.5160
    -3.4507  -3.4303  -2.8440  -2.3016   4.0267   4.7277   6.7839   7.5703
     8.0866   8.3706

     occupation numbers 
     1.0000   1.0000   1.0000   1.0000   1.0000   1.0000   1.0000   1.0000
     1.0000   1.0000   1.0000   1.0000   1.0000   1.0000   1.0000   1.0000
     1.0000   1.0000

          k = 0.3571 0.1237-0.2305 (  2424 PWs)   bands (ev):

    -5.3961  -5.2677  -3.7100  -3.6742  -3.6526  -3.6020  -3.5387  -3.5159
    -3.4506  -3.4303  -2.8440  -2.3016   4.0267   4.7276   6.7839   7.5703
     8.0865   8.3706

     occupation numbers 
     1.0000   1.0000   1.0000   1.0000   1.0000   1.0000   1.0000   1.0000
     1.0000   1.0000   1.0000   1.0000   1.0000   1.0000   1.0000   1.0000
     1.0000   1.0000

          k = 0.3571 0.1237-0.0768 (  2421 PWs)   bands (ev):

    -5.5403  -5.2288  -3.7092  -3.6957  -3.6194  -3.5700  -3.5505  -3.5121
    -3.4678  -3.4110  -3.0944  -1.7133   3.7562   5.0962   5.7687   7.1825
     8.5276   8.7028

     occupation numbers 
     1.0000   1.0000   1.0000   1.0000   1.0000   1.0000   1.0000   1.0000
     1.0000   1.0000   1.0000   1.0000   1.0000   1.0000   1.0000   1.0000
     1.0000   1.0000

          k =-0.5000-0.2062 0.0768 (  2409 PWs)   bands (ev):

    -5.3589  -5.2032  -3.7168  -3.6870  -3.5874  -3.5723  -3.5196  -3.4819
    -3.4313  -3.3996  -2.3076  -1.6967   3.2095   4.2906   5.7198   6.7787
     7.6938   8.3894

     occupation numbers 
     1.0000   1.0000   1.0000   1.0000   1.0000   1.0000   1.0000   1.0000
     1.0000   1.0000   1.0000   1.0000   1.0000   1.0000   1.0000   1.0000
     1.0000   1.0000

          k =-0.5000-0.2062 0.2305 (  2410 PWs)   bands (ev):

    -5.2764  -5.2120  -3.7217  -3.6798  -3.6373  -3.5630  -3.5169  -3.4666
    -3.4271  -3.4176  -2.1673  -1.9097   3.0307   3.4927   6.8912   7.4285
     7.7401   8.2154

     occupation numbers 
     1.0000   1.0000   1.0000   1.0000   1.0000   1.0000   1.0000   1.0000
     1.0000   1.0000   1.0000   1.0000   1.0000   1.0000   1.0000   1.0000
     1.0000   1.0000

          k =-0.5000-0.2062-0.2305 (  2410 PWs)   bands (ev):

    -5.2764  -5.2120  -3.7217  -3.6798  -3.6373  -3.5630  -3.5169  -3.4666
    -3.4271  -3.4175  -2.1673  -1.9097   3.0307   3.4927   6.8912   7.4285
     7.7401   8.2154

     occupation numbers 
     1.0000   1.0000   1.0000   1.0000   1.0000   1.0000   1.0000   1.0000
     1.0000   1.0000   1.0000   1.0000   1.0000   1.0000   1.0000   1.0000
     1.0000   1.0000

          k =-0.5000-0.2062-0.0768 (  2409 PWs)   bands (ev):

    -5.3589  -5.2032  -3.7168  -3.6870  -3.5875  -3.5723  -3.5196  -3.4819
    -3.4314  -3.3996  -2.3076  -1.6967   3.2095   4.2906   5.7198   6.7786
     7.6938   8.3894

     occupation numbers 
     1.0000   1.0000   1.0000   1.0000   1.0000   1.0000   1.0000   1.0000
     1.0000   1.0000   1.0000   1.0000   1.0000   1.0000   1.0000   1.0000
     1.0000   1.0000

          k =-0.5000-0.0412 0.0768 (  2415 PWs)   bands (ev):

    -5.3474  -5.2075  -3.7360  -3.6428  -3.5823  -3.5604  -3.5321  -3.5124
    -3.4487  -3.4329  -2.4408  -1.5292   3.7540   4.5132   5.6577   5.9770
     7.5210   7.9157

     occupation numbers 
     1.0000   1.0000   1.0000   1.0000   1.0000   1.0000   1.0000   1.0000
     1.0000   1.0000   1.0000   1.0000   1.0000   1.0000   1.0000   1.0000
     1.0000   1.0000

          k =-0.5000-0.0412 0.2305 (  2420 PWs)   bands (ev):

    -5.2679  -5.2107  -3.6803  -3.6677  -3.6343  -3.5877  -3.5282  -3.5132
    -3.4465  -3.4330  -2.2357  -1.8594   3.5610   3.9567   5.9897   6.7681
     7.4192   8.3150

     occupation numbers 
     1.0000   1.0000   1.0000   1.0000   1.0000   1.0000   1.0000   1.0000
     1.0000   1.0000   1.0000   1.0000   1.0000   1.0000   1.0000   1.0000
     1.0000   1.0000

          k =-0.5000-0.0412-0.2305 (  2420 PWs)   bands (ev):

    -5.2679  -5.2107  -3.6803  -3.6678  -3.6343  -3.5877  -3.5282  -3.5131
    -3.4466  -3.4330  -2.2357  -1.8594   3.5610   3.9567   5.9897   6.7681
     7.4192   8.3150

     occupation numbers 
     1.0000   1.0000   1.0000   1.0000   1.0000   1.0000   1.0000   1.0000
     1.0000   1.0000   1.0000   1.0000   1.0000   1.0000   1.0000   1.0000
     1.0000   1.0000

          k =-0.5000-0.0412-0.0768 (  2415 PWs)   bands (ev):

    -5.3474  -5.2075  -3.7360  -3.6428  -3.5823  -3.5603  -3.5320  -3.5124
    -3.4487  -3.4329  -2.4408  -1.5292   3.7540   4.5132   5.6577   5.9769
     7.5210   7.9157

     occupation numbers 
     1.0000   1.0000   1.0000   1.0000   1.0000   1.0000   1.0000   1.0000
     1.0000   1.0000   1.0000   1.0000   1.0000   1.0000   1.0000   1.0000
     1.0000   1.0000

          k =-0.5000 0.1237 0.0768 (  2415 PWs)   bands (ev):

    -5.3527  -5.2054  -3.7246  -3.6722  -3.5849  -3.5537  -3.5340  -3.4950
    -3.4435  -3.4164  -2.3905  -1.5946   3.4525   4.4617   5.6632   6.3290
     7.7671   7.9724

     occupation numbers 
     1.0000   1.0000   1.0000   1.0000   1.0000   1.0000   1.0000   1.0000
     1.0000   1.0000   1.0000   1.0000   1.0000   1.0000   1.0000   1.0000
     1.0000   1.0000

          k =-0.5000 0.1237 0.2305 (  2418 PWs)   bands (ev):

    -5.2718  -5.2112  -3.7006  -3.6678  -3.6459  -3.5742  -3.5200  -3.4879
    -3.4382  -3.4291  -2.2093  -1.8779   3.2869   3.7375   6.3971   7.1894
     7.4478   8.2792

     occupation numbers 
     1.0000   1.0000   1.0000   1.0000   1.0000   1.0000   1.0000   1.0000
     1.0000   1.0000   1.0000   1.0000   1.0000   1.0000   1.0000   1.0000
     1.0000   1.0000

          k =-0.5000 0.1237-0.2305 (  2418 PWs)   bands (ev):

    -5.2718  -5.2112  -3.7006  -3.6678  -3.6459  -3.5742  -3.5200  -3.4879
    -3.4381  -3.4292  -2.2093  -1.8779   3.2869   3.7375   6.3971   7.1894
     7.4478   8.2792

     occupation numbers 
     1.0000   1.0000   1.0000   1.0000   1.0000   1.0000   1.0000   1.0000
     1.0000   1.0000   1.0000   1.0000   1.0000   1.0000   1.0000   1.0000
     1.0000   1.0000

          k =-0.5000 0.1237-0.0768 (  2415 PWs)   bands (ev):

    -5.3527  -5.2054  -3.7246  -3.6722  -3.5848  -3.5538  -3.5340  -3.4950
    -3.4435  -3.4164  -2.3905  -1.5946   3.4525   4.4617   5.6631   6.3290
     7.7671   7.9724

     occupation numbers 
     1.0000   1.0000   1.0000   1.0000   1.0000   1.0000   1.0000   1.0000
     1.0000   1.0000   1.0000   1.0000   1.0000   1.0000   1.0000   1.0000
     1.0000   1.0000

          k =-0.5000-0.8660 0.0768 (  2402 PWs)   bands (ev):

    -5.3615  -5.2023  -3.7200  -3.6837  -3.5867  -3.5833  -3.5145  -3.4783
    -3.4245  -3.3928  -2.2580  -1.7550   3.1240   4.2085   5.7493   6.9795
     7.6542   8.5841

     occupation numbers 
     1.0000   1.0000   1.0000   1.0000   1.0000   1.0000   1.0000   1.0000
     1.0000   1.0000   1.0000   1.0000   1.0000   1.0000   1.0000   1.0000
     1.0000   1.0000

          k =-0.5000-0.8660 0.2305 (  2412 PWs)   bands (ev):

    -5.2784  -5.2124  -3.7298  -3.6858  -3.6310  -3.5585  -3.5173  -3.4610
    -3.4211  -3.4105  -2.1429  -1.9293   2.9341   3.3933   7.1392   7.4025
     8.0602   8.0978

     occupation numbers 
     1.0000   1.0000   1.0000   1.0000   1.0000   1.0000   1.0000   1.0000
     1.0000   1.0000   1.0000   1.0000   1.0000   1.0000   1.0000   1.0000
     1.0000   1.0000

     highest occupied level (ev):     9.5684

!    total energy              =    -395.68580653 Ry
     estimated scf accuracy    <          8.7E-15 Ry

     The total energy is the sum of the following terms:
     one-electron contribution =    -187.66733157 Ry
     hartree contribution      =     133.55732441 Ry
     xc contribution           =    -108.40451009 Ry
     ewald contribution        =    -233.17128928 Ry

     convergence has been achieved in  33 iterations

     Forces acting on atoms (cartesian axes, Ry/au):

     atom    1 type  1   force =    -0.00000205    0.00000118    0.00002383
     atom    2 type  1   force =     0.00000203   -0.00000117   -0.00000330
     atom    3 type  2   force =     0.00000195   -0.00000113   -0.00004028
     atom    4 type  2   force =    -0.00000193    0.00000112    0.00001974
     The non-local contrib.  to forces
     atom    1 type  1   force =     0.00018270   -0.00010548   -0.00366428
     atom    2 type  1   force =    -0.00018275    0.00010551   -0.00375409
     atom    3 type  2   force =     0.00019323   -0.00011156    0.01497535
     atom    4 type  2   force =    -0.00019323    0.00011156    0.01511072
     The ionic contribution  to forces
     atom    1 type  1   force =    -0.00030029    0.00017337    0.13562497
     atom    2 type  1   force =     0.00030009   -0.00017326    0.13311106
     atom    3 type  2   force =    -0.00005240    0.00003025   -0.13502965
     atom    4 type  2   force =     0.00005260   -0.00003037   -0.13370638
     The local contribution  to forces
     atom    1 type  1   force =     0.00011851   -0.00006843   -0.13230552
     atom    2 type  1   force =    -0.00011828    0.00006829   -0.12973518
     atom    3 type  2   force =    -0.00013888    0.00008018    0.12003207
     atom    4 type  2   force =     0.00013869   -0.00008007    0.11863346
     The core correction contribution to forces
     atom    1 type  1   force =    -0.00000296    0.00000171    0.00038675
     atom    2 type  1   force =     0.00000296   -0.00000171    0.00039291
     atom    3 type  2   force =     0.00000000    0.00000000    0.00000000
     atom    4 type  2   force =     0.00000000    0.00000000    0.00000000
     The Hubbard contrib.    to forces
     atom    1 type  1   force =     0.00000000    0.00000000    0.00000000
     atom    2 type  1   force =     0.00000000    0.00000000    0.00000000
     atom    3 type  2   force =     0.00000000    0.00000000    0.00000000
     atom    4 type  2   force =     0.00000000    0.00000000    0.00000000
     The SCF correction term to forces
     atom    1 type  1   force =    -0.00000000    0.00000000   -0.00000000
     atom    2 type  1   force =     0.00000001   -0.00000000    0.00000005
     atom    3 type  2   force =    -0.00000000   -0.00000000    0.00000001
     atom    4 type  2   force =    -0.00000000    0.00000000   -0.00000001

     Total force =     0.000045     Total SCF correction =     0.000000


     Computing stress (Cartesian axis) and pressure

          total   stress  (Ry/bohr**3)                   (kbar)     P=       43.40
   0.00028475   0.00000089  -0.00000000           41.89        0.13       -0.00
   0.00000089   0.00028578   0.00000000            0.13       42.04        0.00
  -0.00000000   0.00000000   0.00031447           -0.00        0.00       46.26

     kinetic stress (kbar)  10890.26      0.50      0.00
                                0.50  10890.84     -0.00
                                0.00     -0.00  10907.88

     local   stress (kbar)   5063.38     -1.48      0.00
                               -1.48   5061.67     -0.00
                                0.00     -0.00   3168.56

     nonloc. stress (kbar)  10464.32      0.26     -0.00
                                0.26  10464.62      0.00
                               -0.00      0.00  10452.93

     hartree stress (kbar)  20935.36      0.36     -0.00
                                0.36  20935.78      0.00
                               -0.00      0.00  21794.21

     exc-cor stress (kbar)  12778.12      0.00     -0.00
                                0.00  12778.12      0.00
                               -0.00      0.00  12778.54

     corecor stress (kbar) -22694.87     -0.00      0.00
                               -0.00 -22694.87     -0.00
                                0.00     -0.00 -22694.39

     ewald   stress (kbar) -37394.68      0.50     -0.00
                                0.50 -37394.11      0.00
                               -0.00      0.00 -36361.46

     hubbard stress (kbar)      0.00      0.00      0.00
                                0.00      0.00      0.00
                                0.00      0.00      0.00

     DFT-D   stress (kbar)      0.00      0.00      0.00
                                0.00      0.00      0.00
                                0.00      0.00      0.00

     XDM     stress (kbar)      0.00      0.00      0.00
                                0.00      0.00      0.00
[...]
     8.0053   8.4446

     occupation numbers 
     1.0000   1.0000   1.0000   1.0000   1.0000   1.0000   1.0000   1.0000
     1.0000   1.0000   1.0000   1.0000   1.0000   1.0000   1.0000   1.0000
     1.0000   1.0000

          k = 0.3545-0.2047 0.2285 (  2483 PWs)   bands (ev):

    -5.5899  -5.4959  -4.0631  -4.0239  -3.9932  -3.9386  -3.8896  -3.8543
    -3.8103  -3.7893  -3.0327  -2.5385   3.4322   4.0486   6.5370   7.3599
     7.8856   7.9658

     occupation numbers 
     1.0000   1.0000   1.0000   1.0000   1.0000   1.0000   1.0000   1.0000
     1.0000   1.0000   1.0000   1.0000   1.0000   1.0000   1.0000   1.0000
     1.0000   1.0000

          k = 0.3545-0.2047-0.2285 (  2483 PWs)   bands (ev):

    -5.5899  -5.4959  -4.0629  -4.0242  -3.9932  -3.9385  -3.8893  -3.8544
    -3.8105  -3.7892  -3.0327  -2.5385   3.4321   4.0488   6.5369   7.3599
     7.8856   7.9658

     occupation numbers 
     1.0000   1.0000   1.0000   1.0000   1.0000   1.0000   1.0000   1.0000
     1.0000   1.0000   1.0000   1.0000   1.0000   1.0000   1.0000   1.0000
     1.0000   1.0000

          k = 0.3545-0.2047-0.0762 (  2485 PWs)   bands (ev):

    -5.7022  -5.4724  -4.0591  -4.0333  -3.9648  -3.9159  -3.9044  -3.8638
    -3.8213  -3.7684  -3.2735  -2.0424   3.3577   4.6113   5.2608   6.9687
     8.0054   8.4446

     occupation numbers 
     1.0000   1.0000   1.0000   1.0000   1.0000   1.0000   1.0000   1.0000
     1.0000   1.0000   1.0000   1.0000   1.0000   1.0000   1.0000   1.0000
     1.0000   1.0000

          k = 0.3545-0.0410 0.0762 (  2483 PWs)   bands (ev):

    -5.7788  -5.4850  -4.0570  -4.0377  -3.9736  -3.9514  -3.8994  -3.8703
    -3.8315  -3.7953  -3.4939  -2.1083   3.5592   5.1998   5.5243   6.7380
     8.1263   8.3587

     occupation numbers 
     1.0000   1.0000   1.0000   1.0000   1.0000   1.0000   1.0000   1.0000
     1.0000   1.0000   1.0000   1.0000   1.0000   1.0000   1.0000   1.0000
     1.0000   1.0000

          k = 0.3545-0.0410 0.2285 (  2484 PWs)   bands (ev):

    -5.6399  -5.5196  -4.0396  -4.0216  -4.0026  -3.9767  -3.9003  -3.8907
    -3.8123  -3.8049  -3.2449  -2.7008   3.9911   4.7144   6.5988   6.9853
     7.5913   8.0685

     occupation numbers 
     1.0000   1.0000   1.0000   1.0000   1.0000   1.0000   1.0000   1.0000
     1.0000   1.0000   1.0000   1.0000   1.0000   1.0000   1.0000   1.0000
     1.0000   1.0000

          k = 0.3545-0.0410-0.2285 (  2484 PWs)   bands (ev):

    -5.6399  -5.5196  -4.0393  -4.0217  -4.0029  -3.9765  -3.9002  -3.8907
    -3.8126  -3.8046  -3.2449  -2.7008   3.9911   4.7145   6.5988   6.9851
     7.5915   8.0684

     occupation numbers 
     1.0000   1.0000   1.0000   1.0000   1.0000   1.0000   1.0000   1.0000
     1.0000   1.0000   1.0000   1.0000   1.0000   1.0000   1.0000   1.0000
     1.0000   1.0000

          k = 0.3545-0.0410-0.0762 (  2483 PWs)   bands (ev):

    -5.7788  -5.4850  -4.0570  -4.0376  -3.9739  -3.9512  -3.8992  -3.8704
    -3.8315  -3.7953  -3.4938  -2.1083   3.5592   5.2001   5.5241   6.7380
     8.1264   8.3586

     occupation numbers 
     1.0000   1.0000   1.0000   1.0000   1.0000   1.0000   1.0000   1.0000
     1.0000   1.0000   1.0000   1.0000   1.0000   1.0000   1.0000   1.0000
     1.0000   1.0000

          k = 0.3545 0.1228 0.0762 (  2487 PWs)   bands (ev):

    -5.7508  -5.4802  -4.0538  -4.0422  -3.9699  -3.9252  -3.9070  -3.8715
    -3.8309  -3.7780  -3.4270  -2.0844   3.4989   4.8374   5.4723   6.9038
     8.2049   8.3751

     occupation numbers 
     1.0000   1.0000   1.0000   1.0000   1.0000   1.0000   1.0000   1.0000
     1.0000   1.0000   1.0000   1.0000   1.0000   1.0000   1.0000   1.0000
     1.0000   1.0000

          k = 0.3545 0.1228 0.2285 (  2484 PWs)   bands (ev):

    -5.6217  -5.5110  -4.0539  -4.0206  -4.0020  -3.9550  -3.8947  -3.8738
    -3.8152  -3.7962  -3.1773  -2.6461   3.7549   4.4337   6.4990   7.2799
     7.7751   8.0499

     occupation numbers 
     1.0000   1.0000   1.0000   1.0000   1.0000   1.0000   1.0000   1.0000
     1.0000   1.0000   1.0000   1.0000   1.0000   1.0000   1.0000   1.0000
     1.0000   1.0000

          k = 0.3545 0.1228-0.2285 (  2484 PWs)   bands (ev):

    -5.6217  -5.5110  -4.0541  -4.0203  -4.0019  -3.9551  -3.8949  -3.8738
    -3.8149  -3.7964  -3.1773  -2.6460   3.7550   4.4336   6.4991   7.2800
     7.7747   8.0501

     occupation numbers 
     1.0000   1.0000   1.0000   1.0000   1.0000   1.0000   1.0000   1.0000
     1.0000   1.0000   1.0000   1.0000   1.0000   1.0000   1.0000   1.0000
     1.0000   1.0000

          k = 0.3545 0.1228-0.0762 (  2487 PWs)   bands (ev):

    -5.7509  -5.4802  -4.0539  -4.0422  -3.9695  -3.9253  -3.9074  -3.8712
    -3.8308  -3.7780  -3.4271  -2.0844   3.4989   4.8371   5.4726   6.9038
     8.2047   8.3752

     occupation numbers 
     1.0000   1.0000   1.0000   1.0000   1.0000   1.0000   1.0000   1.0000
     1.0000   1.0000   1.0000   1.0000   1.0000   1.0000   1.0000   1.0000
     1.0000   1.0000

          k =-0.4963-0.2046 0.0762 (  2470 PWs)   bands (ev):

    -5.5936  -5.4577  -4.0603  -4.0342  -3.9405  -3.9271  -3.8791  -3.8440
    -3.7969  -3.7677  -2.6591  -2.0588   2.9715   4.0163   5.4605   6.5138
     7.3967   8.0699

     occupation numbers 
     1.0000   1.0000   1.0000   1.0000   1.0000   1.0000   1.0000   1.0000
     1.0000   1.0000   1.0000   1.0000   1.0000   1.0000   1.0000   1.0000
     1.0000   1.0000

          k =-0.4963-0.2046 0.2285 (  2472 PWs)   bands (ev):

    -5.5196  -5.4636  -4.0645  -4.0255  -3.9880  -3.9192  -3.8753  -3.8293
    -3.7930  -3.7842  -2.5201  -2.2674   2.8023   3.2468   6.6069   7.1356
     7.4394   7.8995

     occupation numbers 
     1.0000   1.0000   1.0000   1.0000   1.0000   1.0000   1.0000   1.0000
     1.0000   1.0000   1.0000   1.0000   1.0000   1.0000   1.0000   1.0000
     1.0000   1.0000

          k =-0.4963-0.2046-0.2285 (  2472 PWs)   bands (ev):

    -5.5196  -5.4636  -4.0644  -4.0255  -3.9880  -3.9192  -3.8752  -3.8293
    -3.7932  -3.7841  -2.5201  -2.2674   2.8023   3.2468   6.6069   7.1354
     7.4396   7.8995

     occupation numbers 
     1.0000   1.0000   1.0000   1.0000   1.0000   1.0000   1.0000   1.0000
     1.0000   1.0000   1.0000   1.0000   1.0000   1.0000   1.0000   1.0000
     1.0000   1.0000

          k =-0.4963-0.2046-0.0762 (  2470 PWs)   bands (ev):

    -5.5936  -5.4577  -4.0603  -4.0342  -3.9408  -3.9268  -3.8791  -3.8441
    -3.7970  -3.7676  -2.6591  -2.0588   2.9715   4.0163   5.4604   6.5138
     7.3967   8.0698

     occupation numbers 
     1.0000   1.0000   1.0000   1.0000   1.0000   1.0000   1.0000   1.0000
     1.0000   1.0000   1.0000   1.0000   1.0000   1.0000   1.0000   1.0000
     1.0000   1.0000

          k =-0.4963-0.0409 0.0762 (  2466 PWs)   bands (ev):

    -5.5815  -5.4614  -4.0788  -3.9926  -3.9363  -3.9166  -3.8904  -3.8721
    -3.8130  -3.7982  -2.7831  -1.9059   3.4990   4.2380   5.3998   5.7243
     7.2235   7.6100

     occupation numbers 
     1.0000   1.0000   1.0000   1.0000   1.0000   1.0000   1.0000   1.0000
     1.0000   1.0000   1.0000   1.0000   1.0000   1.0000   1.0000   1.0000
     1.0000   1.0000

          k =-0.4963-0.0409 0.2285 (  2475 PWs)   bands (ev):

    -5.5106  -5.4619  -4.0265  -4.0151  -3.9846  -3.9421  -3.8857  -3.8720
    -3.8108  -3.7986  -2.5833  -2.2207   3.3105   3.6892   5.7388   6.4959
     7.1192   7.9949

     occupation numbers 
     1.0000   1.0000   1.0000   1.0000   1.0000   1.0000   1.0000   1.0000
     1.0000   1.0000   1.0000   1.0000   1.0000   1.0000   1.0000   1.0000
     1.0000   1.0000

          k =-0.4963-0.0409-0.2285 (  2475 PWs)   bands (ev):

    -5.5106  -5.4619  -4.0265  -4.0151  -3.9847  -3.9421  -3.8857  -3.8719
    -3.8110  -3.7985  -2.5833  -2.2207   3.3104   3.6892   5.7388   6.4958
     7.1193   7.9949

     occupation numbers 
     1.0000   1.0000   1.0000   1.0000   1.0000   1.0000   1.0000   1.0000
     1.0000   1.0000   1.0000   1.0000   1.0000   1.0000   1.0000   1.0000
     1.0000   1.0000

          k =-0.4963-0.0409-0.0762 (  2466 PWs)   bands (ev):

    -5.5815  -5.4614  -4.0788  -3.9926  -3.9367  -3.9163  -3.8900  -3.8724
    -3.8130  -3.7982  -2.7831  -1.9059   3.4989   4.2381   5.3998   5.7242
     7.2236   7.6099

     occupation numbers 
     1.0000   1.0000   1.0000   1.0000   1.0000   1.0000   1.0000   1.0000
     1.0000   1.0000   1.0000   1.0000   1.0000   1.0000   1.0000   1.0000
     1.0000   1.0000

          k =-0.4963 0.1228 0.0762 (  2469 PWs)   bands (ev):

    -5.5871  -5.4596  -4.0680  -4.0199  -3.9388  -3.9098  -3.8923  -3.8563
    -3.8082  -3.7830  -2.7355  -1.9657   3.2098   4.1814   5.4065   6.0720
     7.4673   7.6608

     occupation numbers 
     1.0000   1.0000   1.0000   1.0000   1.0000   1.0000   1.0000   1.0000
     1.0000   1.0000   1.0000   1.0000   1.0000   1.0000   1.0000   1.0000
     1.0000   1.0000

          k =-0.4963 0.1228 0.2285 (  2475 PWs)   bands (ev):

    -5.5147  -5.4626  -4.0449  -4.0149  -3.9958  -3.9297  -3.8782  -3.8487
    -3.8034  -3.7947  -2.5584  -2.2379   3.0494   3.4809   6.1308   6.9026
     7.1491   7.9606

     occupation numbers 
     1.0000   1.0000   1.0000   1.0000   1.0000   1.0000   1.0000   1.0000
     1.0000   1.0000   1.0000   1.0000   1.0000   1.0000   1.0000   1.0000
     1.0000   1.0000

          k =-0.4963 0.1228-0.2285 (  2475 PWs)   bands (ev):

    -5.5147  -5.4626  -4.0450  -4.0148  -3.9957  -3.9297  -3.8782  -3.8488
    -3.8029  -3.7951  -2.5585  -2.2379   3.0495   3.4809   6.1307   6.9031
     7.1486   7.9607

     occupation numbers 
     1.0000   1.0000   1.0000   1.0000   1.0000   1.0000   1.0000   1.0000
     1.0000   1.0000   1.0000   1.0000   1.0000   1.0000   1.0000   1.0000
     1.0000   1.0000

          k =-0.4963 0.1228-0.0762 (  2469 PWs)   bands (ev):

    -5.5871  -5.4596  -4.0680  -4.0200  -3.9384  -3.9102  -3.8923  -3.8562
    -3.8081  -3.7831  -2.7355  -1.9657   3.2098   4.1813   5.4065   6.0721
     7.4671   7.6610

     occupation numbers 
     1.0000   1.0000   1.0000   1.0000   1.0000   1.0000   1.0000   1.0000
     1.0000   1.0000   1.0000   1.0000   1.0000   1.0000   1.0000   1.0000
     1.0000   1.0000

          k =-0.4963-0.8595 0.0762 (  2480 PWs)   bands (ev):

    -5.5964  -5.4570  -4.0632  -4.0311  -3.9398  -3.9371  -3.8744  -3.8408
    -3.7905  -3.7614  -2.6138  -2.1104   2.8878   3.9385   5.4891   6.7088
     7.3589   8.2599

     occupation numbers 
     1.0000   1.0000   1.0000   1.0000   1.0000   1.0000   1.0000   1.0000
     1.0000   1.0000   1.0000   1.0000   1.0000   1.0000   1.0000   1.0000
     1.0000   1.0000

          k =-0.4963-0.8595 0.2285 (  2462 PWs)   bands (ev):

    -5.5217  -5.4641  -4.0720  -4.0310  -3.9822  -3.9150  -3.8757  -3.8242
    -3.7873  -3.7776  -2.4977  -2.2845   2.7097   3.1526   6.8397   7.1175
     7.7535   7.7828

     occupation numbers 
     1.0000   1.0000   1.0000   1.0000   1.0000   1.0000   1.0000   1.0000
     1.0000   1.0000   1.0000   1.0000   1.0000   1.0000   1.0000   1.0000
     1.0000   1.0000

     highest occupied level (ev):     9.2173

!    total energy              =    -395.68691798 Ry
     estimated scf accuracy    <          2.1E-17 Ry

     The total energy is the sum of the following terms:
     one-electron contribution =    -190.54304537 Ry
     hartree contribution      =     134.52817666 Ry
     xc contribution           =    -108.33806361 Ry
     ewald contribution        =    -231.33398565 Ry

     convergence has been achieved in  34 iterations

     Forces acting on atoms (cartesian axes, Ry/au):

     atom    1 type  1   force =    -0.00000248    0.00000142    0.00018864
     atom    2 type  1   force =     0.00000244   -0.00000140   -0.00008525
     atom    3 type  2   force =     0.00000311   -0.00000180   -0.00004925
     atom    4 type  2   force =    -0.00000307    0.00000178   -0.00005415
     The non-local contrib.  to forces
     atom    1 type  1   force =     0.00037726   -0.00021786    0.00057130
     atom    2 type  1   force =    -0.00037768    0.00021808    0.00082026
     atom    3 type  2   force =     0.00011333   -0.00006543    0.01756826
     atom    4 type  2   force =    -0.00011353    0.00006553    0.01711780
     The ionic contribution  to forces
     atom    1 type  1   force =     0.00103128   -0.00059575    0.16147136
     atom    2 type  1   force =    -0.00103308    0.00059666    0.14794343
     atom    3 type  2   force =     0.00111915   -0.00064631   -0.15750868
     atom    4 type  2   force =    -0.00111735    0.00064539   -0.15190610
     The local contribution  to forces
     atom    1 type  1   force =    -0.00140073    0.00080908   -0.16201052
     atom    2 type  1   force =     0.00140289   -0.00081019   -0.14902103
     atom    3 type  2   force =    -0.00122937    0.00070993    0.13990601
     atom    4 type  2   force =     0.00122781   -0.00070914    0.13474899
     The core correction contribution to forces
     atom    1 type  1   force =    -0.00001030    0.00000595    0.00017135
     atom    2 type  1   force =     0.00001032   -0.00000596    0.00018692
     atom    3 type  2   force =     0.00000000    0.00000000    0.00000000
     atom    4 type  2   force =     0.00000000    0.00000000    0.00000000
     The Hubbard contrib.    to forces
     atom    1 type  1   force =     0.00000000    0.00000000    0.00000000
     atom    2 type  1   force =     0.00000000    0.00000000    0.00000000
     atom    3 type  2   force =     0.00000000    0.00000000    0.00000000
     atom    4 type  2   force =     0.00000000    0.00000000    0.00000000
     The SCF correction term to forces
     atom    1 type  1   force =    -0.00000000    0.00000000   -0.00000000
     atom    2 type  1   force =     0.00000000    0.00000000   -0.00000000
     atom    3 type  2   force =    -0.00000000    0.00000000   -0.00000000
     atom    4 type  2   force =     0.00000000    0.00000000    0.00000000

     Total force =     0.000113     Total SCF correction =     0.000000


     Computing stress (Cartesian axis) and pressure

          total   stress  (Ry/bohr**3)                   (kbar)     P=        0.12
   0.00000090   0.00000001  -0.00000001            0.13        0.00       -0.00
   0.00000001   0.00000090   0.00000000            0.00        0.13        0.00
  -0.00000001   0.00000000   0.00000068           -0.00        0.00        0.10

     kinetic stress (kbar)  10591.29      0.35     -0.00
                                0.35  10591.69      0.00
                               -0.00      0.00  10604.40

     local   stress (kbar)   4478.41     -1.70     -0.00
                               -1.70   4476.45      0.00
                               -0.00      0.00   2758.82

     nonloc. stress (kbar)  10198.52      0.27      0.00
                                0.27  10198.83     -0.00
                                0.00     -0.00  10186.50

     hartree stress (kbar)  20611.02      0.40      0.00
                                0.40  20611.48     -0.00
                                0.00     -0.00  21399.71

     exc-cor stress (kbar)  12486.89      0.00      0.00
                                0.00  12486.89     -0.00
                                0.00     -0.00  12487.24

     corecor stress (kbar) -22161.15     -0.01     -0.00
                               -0.01 -22161.15      0.00
                               -0.00      0.00 -22160.64

     ewald   stress (kbar) -36204.86      0.69     -0.00
                                0.69 -36204.06      0.00
                               -0.00      0.00 -35275.94

     hubbard stress (kbar)      0.00      0.00      0.00
                                0.00      0.00      0.00
                                0.00      0.00      0.00

     DFT-D   stress (kbar)      0.00      0.00      0.00
                                0.00      0.00      0.00
                                0.00      0.00      0.00

     XDM     stress (kbar)      0.00      0.00      0.00
                                0.00      0.00      0.00
                                0.00      0.00      0.00

     dft-nl  stress (kbar)      0.00      0.00      0.00
                                0.00      0.00      0.00
                                0.00      0.00      0.00

     TS-vdW  stress (kbar)      0.00      0.00      0.00
                                0.00      0.00      0.00
                                0.00      0.00      0.00



     Writing output data file ./gan_wz/gan_wz.save/

     init_run     :     26.98s CPU     27.11s WALL (       2 calls)
     electrons    :   3870.62s CPU   3891.04s WALL (       9 calls)
     update_pot   :     31.07s CPU     31.07s WALL (       7 calls)
     forces       :     42.92s CPU     43.23s WALL (       9 calls)
     stress       :     84.16s CPU     85.01s WALL (       9 calls)

     Called by init_run:
     wfcinit      :     16.69s CPU     16.74s WALL (       2 calls)
     wfcinit:atom :      0.23s CPU      0.23s WALL (     196 calls)
     wfcinit:wfcr :     15.49s CPU     15.53s WALL (     196 calls)
     potinit      :      2.68s CPU      2.68s WALL (       2 calls)
     hinit0       :      7.31s CPU      7.31s WALL (       2 calls)

     Called by electrons:
     c_bands      :   3336.75s CPU   3343.50s WALL (     198 calls)
     sum_band     :    486.83s CPU    494.45s WALL (     198 calls)
     v_of_rho     :     14.24s CPU     14.25s WALL (     202 calls)
     v_h          :      0.78s CPU      0.78s WALL (     202 calls)
     v_xc         :     14.61s CPU     14.62s WALL (     220 calls)
     newd         :     31.05s CPU     37.39s WALL (     202 calls)
     mix_rho      :      2.74s CPU      2.74s WALL (     198 calls)

     Called by c_bands:
     init_us_2    :     59.40s CPU     59.67s WALL (   40768 calls)
     cegterg      :   3165.65s CPU   3171.86s WALL (   19404 calls)

     Called by sum_band:
     sum_band:wei :      0.00s CPU      0.00s WALL (     198 calls)
     sum_band:loo :    452.02s CPU    453.17s WALL (     198 calls)
     sum_band:buf :      1.94s CPU      1.96s WALL (   19404 calls)
     sum_band:ini :     28.58s CPU     28.62s WALL (   19404 calls)
     sum_band:cal :    115.51s CPU    115.68s WALL (   19404 calls)
     sum_band:bec :      0.69s CPU      0.69s WALL (   19404 calls)
     addusdens    :     33.72s CPU     40.19s WALL (     198 calls)
     addusd:skk   :      0.14s CPU      0.14s WALL (     396 calls)
     addusd:dgemm :      8.04s CPU     13.68s WALL (     396 calls)
     addusd:qvan2 :     21.72s CPU     21.72s WALL (     396 calls)

     Called by *egterg:
     cdiaghg      :     33.06s CPU     33.14s WALL (   60326 calls)
     cegterg:over :    217.57s CPU    217.81s WALL (   42098 calls)
     cegterg:upda :    123.44s CPU    123.64s WALL (   42098 calls)
     cegterg:last :    264.85s CPU    265.15s WALL (   36007 calls)
     h_psi        :   2104.46s CPU   2109.61s WALL (   61698 calls)
     s_psi        :    300.39s CPU    300.82s WALL (   61698 calls)
     g_psi        :     32.51s CPU     32.55s WALL (   42098 calls)

     Called by h_psi:
     h_psi:calbec :    290.93s CPU    291.36s WALL (   61698 calls)
     vloc_psi     :   1508.63s CPU   1513.05s WALL (   61698 calls)
     add_vuspsi   :    299.37s CPU    299.77s WALL (   61698 calls)

     General routines
     calbec       :    430.75s CPU    431.57s WALL (   85512 calls)
     fft          :      7.51s CPU      7.51s WALL (    2845 calls)
     ffts         :      0.55s CPU      0.55s WALL (     400 calls)
     fftw         :   1651.88s CPU   1656.96s WALL ( 2137662 calls)
     interpolate  :      0.73s CPU      0.73s WALL (     202 calls)

     Parallel routines

     PWSCF        :      1h 7m CPU      1h 7m WALL


   This run was terminated on:  21:59:10   3Nov2022            

=------------------------------------------------------------------------------=
   JOB DONE.
=------------------------------------------------------------------------------=
