
     Program PWSCF v.6.7MaX starts on  9Nov2022 at 18:59:24 

     This program is part of the open-source Quantum ESPRESSO suite
     for quantum simulation of materials; please cite
         "P. Giannozzi et al., J. Phys.:Condens. Matter 21 395502 (2009);
         "P. Giannozzi et al., J. Phys.:Condens. Matter 29 465901 (2017);
          URL http://www.quantum-espresso.org", 
     in publications or presentations arising from this work. More details at
     http://www.quantum-espresso.org/quote

     Parallel version (MPI), running on     1 processors

     MPI processes distributed on     1 nodes
     Waiting for input...
     Reading input from standard input

     Current dimensions of program PWSCF are:
     Max number of different atomic species (ntypx) = 10
     Max number of k-points (npk) =  40000
     Max angular momentum in pseudopotentials (lmaxx) =  3
     file Ga.pbe-dnl-rrkjus_psl.1.0.0.UPF: wavefunction(s)  3D renormalized

     Subspace diagonalization in iterative solution of the eigenvalue problem:
     a serial algorithm will be used


     G-vector sticks info
     --------------------
     sticks:   dense  smooth     PW     G-vecs:    dense   smooth      PW
     Sum         913     595    199                35591    19411    3609



     bravais-lattice index     =            4
     lattice parameter (alat)  =       6.0282  a.u.
     unit-cell volume          =     308.5974 (a.u.)^3
     number of atoms/cell      =            4
     number of atomic types    =            2
     number of electrons       =        36.00
     number of Kohn-Sham states=           18
     kinetic-energy cutoff     =      60.0000  Ry
     charge density cutoff     =     360.0000  Ry
     scf convergence threshold =      1.0E-14
     mixing beta               =       0.7000
     number of iterations used =            8  plain     mixing
     energy convergence thresh.=      1.0E-05
     force convergence thresh. =      1.0E-04
     Exchange-correlation= PBE
                           (   1   4   3   4   0   0   0)
     nstep                     =          200


     celldm(1)=   6.028226  celldm(2)=   0.000000  celldm(3)=   1.626646
     celldm(4)=   0.000000  celldm(5)=   0.000000  celldm(6)=   0.000000

     crystal axes: (cart. coord. in units of alat)
               a(1) = (   1.000000   0.000000   0.000000 )  
               a(2) = (  -0.500000   0.866025   0.000000 )  
               a(3) = (   0.000000   0.000000   1.626646 )  

     reciprocal axes: (cart. coord. in units 2 pi/alat)
               b(1) = (  1.000000  0.577350 -0.000000 )  
               b(2) = (  0.000000  1.154701  0.000000 )  
               b(3) = (  0.000000 -0.000000  0.614762 )  


     PseudoPot. # 1 for Ga read from file:
     ./PP/Ga.pbe-dnl-rrkjus_psl.1.0.0.UPF
     MD5 check sum: 270b2196c8436448097a4541768b2cf5
     Pseudo is Ultrasoft + core correction, Zval = 13.0
     Generated using &quot;atomic&quot; code by A. Dal Corso  v.6.3
     Using radial grid of 1205 points,  6 beta functions with: 
                l(1) =   0
                l(2) =   0
                l(3) =   1
                l(4) =   1
                l(5) =   2
                l(6) =   2
     Q(r) pseudized with 0 coefficients 


     PseudoPot. # 2 for N  read from file:
     ./PP/N.pbe-n-rrkjus_psl.1.0.0.UPF
     MD5 check sum: ada94e3ed05223de5319d0572dc76806
     Pseudo is Ultrasoft + core correction, Zval =  5.0
     Generated using &quot;atomic&quot; code by A. Dal Corso  v.6.3MaX
     Using radial grid of 1085 points,  4 beta functions with: 
                l(1) =   0
                l(2) =   0
                l(3) =   1
                l(4) =   1
     Q(r) pseudized with 0 coefficients 


     atomic species   valence    mass     pseudopotential
        Ga            13.00    69.72300     Ga( 1.00)
        N              5.00    14.00674     N ( 1.00)

     No symmetry found


                                    s                        frac. trans.

      isym =  1     identity                                     

 cryst.   s( 1) = (     1          0          0      )
                  (     0          1          0      )
                  (     0          0          1      )

 cart.    s( 1) = (  1.0000000  0.0000000  0.0000000 )
                  (  0.0000000  1.0000000  0.0000000 )
                  (  0.0000000  0.0000000  1.0000000 )


     point group C_1 (1)    
     there are  1 classes
     the character table:

       E    
A      1.00

     the symmetry operations in each class and the name of the first element:

     E        1
          identity                                               

   Cartesian axes

     site n.     atom                  positions (alat units)
         1           Ga  tau(   1) = (   0.5000005   0.2886748   0.0000000  )
         2           Ga  tau(   2) = (  -0.0000005   0.5773506   0.8133229  )
         3           N   tau(   3) = (   0.5000005   0.2886748   0.6099922  )
         4           N   tau(   4) = (  -0.0000005   0.5773506   1.4233150  )

   Crystallographic axes

     site n.     atom                  positions (cryst. coord.)
         1           Ga  tau(   1) = (  0.6666670  0.3333330  0.0000000  )
         2           Ga  tau(   2) = (  0.3333330  0.6666670  0.5000000  )
         3           N   tau(   3) = (  0.6666670  0.3333330  0.3750000  )
         4           N   tau(   4) = (  0.3333330  0.6666670  0.8750000  )

     number of k points=    98
                       cart. coord. in units 2pi/alat
        k(    1) = (   0.0714286   0.1237179   0.0768452), wk =   0.0204082
        k(    2) = (   0.0714286   0.1237179   0.2305357), wk =   0.0204082
        k(    3) = (   0.0714286   0.1237179  -0.2305357), wk =   0.0204082
        k(    4) = (   0.0714286   0.1237179  -0.0768452), wk =   0.0204082
        k(    5) = (   0.0714286   0.2886751   0.0768452), wk =   0.0204082
        k(    6) = (   0.0714286   0.2886751   0.2305357), wk =   0.0204082
        k(    7) = (   0.0714286   0.2886751  -0.2305357), wk =   0.0204082
        k(    8) = (   0.0714286   0.2886751  -0.0768452), wk =   0.0204082
        k(    9) = (   0.0714286   0.4536324   0.0768452), wk =   0.0204082
        k(   10) = (   0.0714286   0.4536324   0.2305357), wk =   0.0204082
        k(   11) = (   0.0714286   0.4536324  -0.2305357), wk =   0.0204082
        k(   12) = (   0.0714286   0.4536324  -0.0768452), wk =   0.0204082
        k(   13) = (   0.0714286  -0.5361110   0.0768452), wk =   0.0204082
        k(   14) = (   0.0714286  -0.5361110   0.2305357), wk =   0.0204082
        k(   15) = (   0.0714286  -0.5361110  -0.2305357), wk =   0.0204082
        k(   16) = (   0.0714286  -0.5361110  -0.0768452), wk =   0.0204082
        k(   17) = (   0.0714286  -0.3711537   0.0768452), wk =   0.0204082
        k(   18) = (   0.0714286  -0.3711537   0.2305357), wk =   0.0204082
        k(   19) = (   0.0714286  -0.3711537  -0.2305357), wk =   0.0204082
        k(   20) = (   0.0714286  -0.3711537  -0.0768452), wk =   0.0204082
        k(   21) = (   0.0714286  -0.2061965   0.0768452), wk =   0.0204082
        k(   22) = (   0.0714286  -0.2061965   0.2305357), wk =   0.0204082
        k(   23) = (   0.0714286  -0.2061965  -0.2305357), wk =   0.0204082
        k(   24) = (   0.0714286  -0.2061965  -0.0768452), wk =   0.0204082
        k(   25) = (   0.0714286  -0.0412393   0.0768452), wk =   0.0204082
        k(   26) = (   0.0714286  -0.0412393   0.2305357), wk =   0.0204082
        k(   27) = (   0.0714286  -0.0412393  -0.2305357), wk =   0.0204082
        k(   28) = (   0.0714286  -0.0412393  -0.0768452), wk =   0.0204082
        k(   29) = (   0.2142857   0.2061965   0.0768452), wk =   0.0204082
        k(   30) = (   0.2142857   0.2061965   0.2305357), wk =   0.0204082
        k(   31) = (   0.2142857   0.2061965  -0.2305357), wk =   0.0204082
        k(   32) = (   0.2142857   0.2061965  -0.0768452), wk =   0.0204082
        k(   33) = (   0.2142857   0.3711537   0.0768452), wk =   0.0204082
        k(   34) = (   0.2142857   0.3711537   0.2305357), wk =   0.0204082
        k(   35) = (   0.2142857   0.3711537  -0.2305357), wk =   0.0204082
        k(   36) = (   0.2142857   0.3711537  -0.0768452), wk =   0.0204082
        k(   37) = (   0.2142857   0.5361110   0.0768452), wk =   0.0204082
        k(   38) = (   0.2142857   0.5361110   0.2305357), wk =   0.0204082
        k(   39) = (   0.2142857   0.5361110  -0.2305357), wk =   0.0204082
        k(   40) = (   0.2142857   0.5361110  -0.0768452), wk =   0.0204082
        k(   41) = (   0.2142857  -0.4536324   0.0768452), wk =   0.0204082
        k(   42) = (   0.2142857  -0.4536324   0.2305357), wk =   0.0204082
        k(   43) = (   0.2142857  -0.4536324  -0.2305357), wk =   0.0204082
        k(   44) = (   0.2142857  -0.4536324  -0.0768452), wk =   0.0204082
        k(   45) = (   0.2142857  -0.2886751   0.0768452), wk =   0.0204082
        k(   46) = (   0.2142857  -0.2886751   0.2305357), wk =   0.0204082
        k(   47) = (   0.2142857  -0.2886751  -0.2305357), wk =   0.0204082
        k(   48) = (   0.2142857  -0.2886751  -0.0768452), wk =   0.0204082
        k(   49) = (   0.2142857  -0.1237179   0.0768452), wk =   0.0204082
        k(   50) = (   0.2142857  -0.1237179   0.2305357), wk =   0.0204082
        k(   51) = (   0.2142857  -0.1237179  -0.2305357), wk =   0.0204082
        k(   52) = (   0.2142857  -0.1237179  -0.0768452), wk =   0.0204082
        k(   53) = (   0.2142857   0.0412393   0.0768452), wk =   0.0204082
        k(   54) = (   0.2142857   0.0412393   0.2305357), wk =   0.0204082
        k(   55) = (   0.2142857   0.0412393  -0.2305357), wk =   0.0204082
        k(   56) = (   0.2142857   0.0412393  -0.0768452), wk =   0.0204082
        k(   57) = (   0.3571429   0.2886751   0.0768452), wk =   0.0204082
        k(   58) = (   0.3571429   0.2886751   0.2305357), wk =   0.0204082
        k(   59) = (   0.3571429   0.2886751  -0.2305357), wk =   0.0204082
        k(   60) = (   0.3571429   0.2886751  -0.0768452), wk =   0.0204082
        k(   61) = (   0.3571429   0.4536324   0.0768452), wk =   0.0204082
        k(   62) = (   0.3571429   0.4536324   0.2305357), wk =   0.0204082
        k(   63) = (   0.3571429   0.4536324  -0.2305357), wk =   0.0204082
        k(   64) = (   0.3571429   0.4536324  -0.0768452), wk =   0.0204082
        k(   65) = (   0.3571429   0.6185896   0.0768452), wk =   0.0204082
        k(   66) = (   0.3571429   0.6185896   0.2305357), wk =   0.0204082
        k(   67) = (   0.3571429   0.6185896  -0.2305357), wk =   0.0204082
        k(   68) = (   0.3571429   0.6185896  -0.0768452), wk =   0.0204082
        k(   69) = (   0.3571429  -0.3711537   0.0768452), wk =   0.0204082
        k(   70) = (   0.3571429  -0.3711537   0.2305357), wk =   0.0204082
        k(   71) = (   0.3571429  -0.3711537  -0.2305357), wk =   0.0204082
        k(   72) = (   0.3571429  -0.3711537  -0.0768452), wk =   0.0204082
        k(   73) = (   0.3571429  -0.2061965   0.0768452), wk =   0.0204082
        k(   74) = (   0.3571429  -0.2061965   0.2305357), wk =   0.0204082
        k(   75) = (   0.3571429  -0.2061965  -0.2305357), wk =   0.0204082
        k(   76) = (   0.3571429  -0.2061965  -0.0768452), wk =   0.0204082
        k(   77) = (   0.3571429  -0.0412393   0.0768452), wk =   0.0204082
        k(   78) = (   0.3571429  -0.0412393   0.2305357), wk =   0.0204082
        k(   79) = (   0.3571429  -0.0412393  -0.2305357), wk =   0.0204082
        k(   80) = (   0.3571429  -0.0412393  -0.0768452), wk =   0.0204082
        k(   81) = (   0.3571429   0.1237179   0.0768452), wk =   0.0204082
        k(   82) = (   0.3571429   0.1237179   0.2305357), wk =   0.0204082
        k(   83) = (   0.3571429   0.1237179  -0.2305357), wk =   0.0204082
        k(   84) = (   0.3571429   0.1237179  -0.0768452), wk =   0.0204082
        k(   85) = (  -0.5000000  -0.2061965   0.0768452), wk =   0.0204082
        k(   86) = (  -0.5000000  -0.2061965   0.2305357), wk =   0.0204082
        k(   87) = (  -0.5000000  -0.2061965  -0.2305357), wk =   0.0204082
        k(   88) = (  -0.5000000  -0.2061965  -0.0768452), wk =   0.0204082
        k(   89) = (  -0.5000000  -0.0412393   0.0768452), wk =   0.0204082
        k(   90) = (  -0.5000000  -0.0412393   0.2305357), wk =   0.0204082
        k(   91) = (  -0.5000000  -0.0412393  -0.2305357), wk =   0.0204082
        k(   92) = (  -0.5000000  -0.0412393  -0.0768452), wk =   0.0204082
        k(   93) = (  -0.5000000   0.1237179   0.0768452), wk =   0.0204082
        k(   94) = (  -0.5000000   0.1237179   0.2305357), wk =   0.0204082
        k(   95) = (  -0.5000000   0.1237179  -0.2305357), wk =   0.0204082
        k(   96) = (  -0.5000000   0.1237179  -0.0768452), wk =   0.0204082
        k(   97) = (  -0.5000000  -0.8660254   0.0768452), wk =   0.0204082
        k(   98) = (  -0.5000000  -0.8660254   0.2305357), wk =   0.0204082

                       cryst. coord.
        k(    1) = (   0.0714286   0.0714286   0.1250000), wk =   0.0204082
        k(    2) = (   0.0714286   0.0714286   0.3750000), wk =   0.0204082
        k(    3) = (   0.0714286   0.0714286  -0.3750000), wk =   0.0204082
        k(    4) = (   0.0714286   0.0714286  -0.1250000), wk =   0.0204082
        k(    5) = (   0.0714286   0.2142857   0.1250000), wk =   0.0204082
        k(    6) = (   0.0714286   0.2142857   0.3750000), wk =   0.0204082
        k(    7) = (   0.0714286   0.2142857  -0.3750000), wk =   0.0204082
        k(    8) = (   0.0714286   0.2142857  -0.1250000), wk =   0.0204082
        k(    9) = (   0.0714286   0.3571429   0.1250000), wk =   0.0204082
        k(   10) = (   0.0714286   0.3571429   0.3750000), wk =   0.0204082
        k(   11) = (   0.0714286   0.3571429  -0.3750000), wk =   0.0204082
        k(   12) = (   0.0714286   0.3571429  -0.1250000), wk =   0.0204082
        k(   13) = (   0.0714286  -0.5000000   0.1250000), wk =   0.0204082
        k(   14) = (   0.0714286  -0.5000000   0.3750000), wk =   0.0204082
        k(   15) = (   0.0714286  -0.5000000  -0.3750000), wk =   0.0204082
        k(   16) = (   0.0714286  -0.5000000  -0.1250000), wk =   0.0204082
        k(   17) = (   0.0714286  -0.3571429   0.1250000), wk =   0.0204082
        k(   18) = (   0.0714286  -0.3571429   0.3750000), wk =   0.0204082
        k(   19) = (   0.0714286  -0.3571429  -0.3750000), wk =   0.0204082
        k(   20) = (   0.0714286  -0.3571429  -0.1250000), wk =   0.0204082
        k(   21) = (   0.0714286  -0.2142857   0.1250000), wk =   0.0204082
        k(   22) = (   0.0714286  -0.2142857   0.3750000), wk =   0.0204082
        k(   23) = (   0.0714286  -0.2142857  -0.3750000), wk =   0.0204082
        k(   24) = (   0.0714286  -0.2142857  -0.1250000), wk =   0.0204082
        k(   25) = (   0.0714286  -0.0714286   0.1250000), wk =   0.0204082
        k(   26) = (   0.0714286  -0.0714286   0.3750000), wk =   0.0204082
        k(   27) = (   0.0714286  -0.0714286  -0.3750000), wk =   0.0204082
        k(   28) = (   0.0714286  -0.0714286  -0.1250000), wk =   0.0204082
        k(   29) = (   0.2142857   0.0714286   0.1250000), wk =   0.0204082
        k(   30) = (   0.2142857   0.0714286   0.3750000), wk =   0.0204082
        k(   31) = (   0.2142857   0.0714286  -0.3750000), wk =   0.0204082
        k(   32) = (   0.2142857   0.0714286  -0.1250000), wk =   0.0204082
        k(   33) = (   0.2142857   0.2142857   0.1250000), wk =   0.0204082
        k(   34) = (   0.2142857   0.2142857   0.3750000), wk =   0.0204082
        k(   35) = (   0.2142857   0.2142857  -0.3750000), wk =   0.0204082
        k(   36) = (   0.2142857   0.2142857  -0.1250000), wk =   0.0204082
        k(   37) = (   0.2142857   0.3571429   0.1250000), wk =   0.0204082
        k(   38) = (   0.2142857   0.3571429   0.3750000), wk =   0.0204082
        k(   39) = (   0.2142857   0.3571429  -0.3750000), wk =   0.0204082
        k(   40) = (   0.2142857   0.3571429  -0.1250000), wk =   0.0204082
        k(   41) = (   0.2142857  -0.5000000   0.1250000), wk =   0.0204082
        k(   42) = (   0.2142857  -0.5000000   0.3750000), wk =   0.0204082
        k(   43) = (   0.2142857  -0.5000000  -0.3750000), wk =   0.0204082
        k(   44) = (   0.2142857  -0.5000000  -0.1250000), wk =   0.0204082
        k(   45) = (   0.2142857  -0.3571429   0.1250000), wk =   0.0204082
        k(   46) = (   0.2142857  -0.3571429   0.3750000), wk =   0.0204082
        k(   47) = (   0.2142857  -0.3571429  -0.3750000), wk =   0.0204082
        k(   48) = (   0.2142857  -0.3571429  -0.1250000), wk =   0.0204082
        k(   49) = (   0.2142857  -0.2142857   0.1250000), wk =   0.0204082
        k(   50) = (   0.2142857  -0.2142857   0.3750000), wk =   0.0204082
        k(   51) = (   0.2142857  -0.2142857  -0.3750000), wk =   0.0204082
        k(   52) = (   0.2142857  -0.2142857  -0.1250000), wk =   0.0204082
        k(   53) = (   0.2142857  -0.0714286   0.1250000), wk =   0.0204082
        k(   54) = (   0.2142857  -0.0714286   0.3750000), wk =   0.0204082
        k(   55) = (   0.2142857  -0.0714286  -0.3750000), wk =   0.0204082
        k(   56) = (   0.2142857  -0.0714286  -0.1250000), wk =   0.0204082
        k(   57) = (   0.3571429   0.0714286   0.1250000), wk =   0.0204082
        k(   58) = (   0.3571429   0.0714286   0.3750000), wk =   0.0204082
        k(   59) = (   0.3571429   0.0714286  -0.3750000), wk =   0.0204082
        k(   60) = (   0.3571429   0.0714286  -0.1250000), wk =   0.0204082
        k(   61) = (   0.3571429   0.2142857   0.1250000), wk =   0.0204082
        k(   62) = (   0.3571429   0.2142857   0.3750000), wk =   0.0204082
        k(   63) = (   0.3571429   0.2142857  -0.3750000), wk =   0.0204082
        k(   64) = (   0.3571429   0.2142857  -0.1250000), wk =   0.0204082
        k(   65) = (   0.3571429   0.3571429   0.1250000), wk =   0.0204082
        k(   66) = (   0.3571429   0.3571429   0.3750000), wk =   0.0204082
        k(   67) = (   0.3571429   0.3571429  -0.3750000), wk =   0.0204082
        k(   68) = (   0.3571429   0.3571429  -0.1250000), wk =   0.0204082
        k(   69) = (   0.3571429  -0.5000000   0.1250000), wk =   0.0204082
        k(   70) = (   0.3571429  -0.5000000   0.3750000), wk =   0.0204082
        k(   71) = (   0.3571429  -0.5000000  -0.3750000), wk =   0.0204082
        k(   72) = (   0.3571429  -0.5000000  -0.1250000), wk =   0.0204082
        k(   73) = (   0.3571429  -0.3571429   0.1250000), wk =   0.0204082
        k(   74) = (   0.3571429  -0.3571429   0.3750000), wk =   0.0204082
        k(   75) = (   0.3571429  -0.3571429  -0.3750000), wk =   0.0204082
        k(   76) = (   0.3571429  -0.3571429  -0.1250000), wk =   0.0204082
        k(   77) = (   0.3571429  -0.2142857   0.1250000), wk =   0.0204082
        k(   78) = (   0.3571429  -0.2142857   0.3750000), wk =   0.0204082
        k(   79) = (   0.3571429  -0.2142857  -0.3750000), wk =   0.0204082
        k(   80) = (   0.3571429  -0.2142857  -0.1250000), wk =   0.0204082
        k(   81) = (   0.3571429  -0.0714286   0.1250000), wk =   0.0204082
        k(   82) = (   0.3571429  -0.0714286   0.3750000), wk =   0.0204082
        k(   83) = (   0.3571429  -0.0714286  -0.3750000), wk =   0.0204082
        k(   84) = (   0.3571429  -0.0714286  -0.1250000), wk =   0.0204082
        k(   85) = (  -0.5000000   0.0714286   0.1250000), wk =   0.0204082
        k(   86) = (  -0.5000000   0.0714286   0.3750000), wk =   0.0204082
        k(   87) = (  -0.5000000   0.0714286  -0.3750000), wk =   0.0204082
        k(   88) = (  -0.5000000   0.0714286  -0.1250000), wk =   0.0204082
        k(   89) = (  -0.5000000   0.2142857   0.1250000), wk =   0.0204082
        k(   90) = (  -0.5000000   0.2142857   0.3750000), wk =   0.0204082
        k(   91) = (  -0.5000000   0.2142857  -0.3750000), wk =   0.0204082
        k(   92) = (  -0.5000000   0.2142857  -0.1250000), wk =   0.0204082
        k(   93) = (  -0.5000000   0.3571429   0.1250000), wk =   0.0204082
        k(   94) = (  -0.5000000   0.3571429   0.3750000), wk =   0.0204082
        k(   95) = (  -0.5000000   0.3571429  -0.3750000), wk =   0.0204082
        k(   96) = (  -0.5000000   0.3571429  -0.1250000), wk =   0.0204082
        k(   97) = (  -0.5000000  -0.5000000   0.1250000), wk =   0.0204082
        k(   98) = (  -0.5000000  -0.5000000   0.3750000), wk =   0.0204082

     Dense  grid:    35591 G-vectors     FFT dimensions: (  40,  40,  60)

     Smooth grid:    19411 G-vectors     FFT dimensions: (  30,  30,  50)

     Dynamical RAM for                 wfc:       0.67 MB

     Dynamical RAM for     wfc (w. buffer):      65.86 MB

     Dynamical RAM for           str. fact:       1.09 MB

     Dynamical RAM for           local pot:       0.00 MB

     Dynamical RAM for          nlocal pot:       1.92 MB

     Dynamical RAM for                qrad:       3.05 MB

     Dynamical RAM for          rho,v,vnew:       3.83 MB

     Dynamical RAM for               rhoin:       1.28 MB

     Dynamical RAM for            rho*nmix:       8.69 MB

     Dynamical RAM for           G-vectors:       2.18 MB

     Dynamical RAM for          h,s,v(r/c):       0.06 MB

     Dynamical RAM for          <psi|beta>:       0.01 MB

     Dynamical RAM for                 psi:       1.33 MB

     Dynamical RAM for                hpsi:       1.33 MB

     Dynamical RAM for                spsi:       1.33 MB

     Dynamical RAM for      wfcinit/wfcrot:       1.94 MB

     Dynamical RAM for           addusdens:     102.10 MB

     Dynamical RAM for          addusforce:     103.46 MB

     Estimated static dynamical RAM per process >      93.18 MB

     Estimated max dynamical RAM per process >     196.64 MB

     Check: negative core charge=   -0.000003

     Initial potential from superposition of free atoms

     starting charge   35.99408, renormalised to   36.00000
     Starting wfcs are   26 randomized atomic wfcs

     total cpu time spent up to now is        3.3 secs

     Self-consistent Calculation

     iteration #  1     ecut=    60.00 Ry     beta= 0.70
     Davidson diagonalization with overlap
     ethr =  1.00E-02,  avg # of iterations =  2.0

     total cpu time spent up to now is        8.9 secs

     total energy              =    -382.68161606 Ry
     estimated scf accuracy    <       0.99008289 Ry

     iteration #  2     ecut=    60.00 Ry     beta= 0.70
     Davidson diagonalization with overlap
     ethr =  2.75E-03,  avg # of iterations =  4.0

     total cpu time spent up to now is       16.3 secs

     total energy              =    -382.96174722 Ry
     estimated scf accuracy    <       0.91392876 Ry

     iteration #  3     ecut=    60.00 Ry     beta= 0.70
     Davidson diagonalization with overlap
     ethr =  2.54E-03,  avg # of iterations =  2.0

     total cpu time spent up to now is       22.5 secs

     total energy              =    -383.11947306 Ry
     estimated scf accuracy    <       0.00809118 Ry

     iteration #  4     ecut=    60.00 Ry     beta= 0.70
     Davidson diagonalization with overlap
     ethr =  2.25E-05,  avg # of iterations =  5.5

     total cpu time spent up to now is       32.0 secs

     total energy              =    -383.12672899 Ry
     estimated scf accuracy    <       0.00621894 Ry

     iteration #  5     ecut=    60.00 Ry     beta= 0.70
     Davidson diagonalization with overlap
     ethr =  1.73E-05,  avg # of iterations =  2.0

     total cpu time spent up to now is       37.7 secs

     total energy              =    -383.12686007 Ry
     estimated scf accuracy    <       0.00121865 Ry

     iteration #  6     ecut=    60.00 Ry     beta= 0.70
     Davidson diagonalization with overlap
     ethr =  3.39E-06,  avg # of iterations =  2.8

     total cpu time spent up to now is       43.7 secs

     total energy              =    -383.12695728 Ry
     estimated scf accuracy    <       0.00019443 Ry

     iteration #  7     ecut=    60.00 Ry     beta= 0.70
     Davidson diagonalization with overlap
     ethr =  5.40E-07,  avg # of iterations =  4.0

     total cpu time spent up to now is       49.8 secs

     total energy              =    -383.12699113 Ry
     estimated scf accuracy    <       0.00001809 Ry

     iteration #  8     ecut=    60.00 Ry     beta= 0.70
     Davidson diagonalization with overlap
     ethr =  5.03E-08,  avg # of iterations =  2.6

     total cpu time spent up to now is       55.6 secs

     total energy              =    -383.12699106 Ry
     estimated scf accuracy    <       0.00000671 Ry

     iteration #  9     ecut=    60.00 Ry     beta= 0.70
     Davidson diagonalization with overlap
     ethr =  1.86E-08,  avg # of iterations =  2.1

     total cpu time spent up to now is       61.4 secs

     total energy              =    -383.12699129 Ry
     estimated scf accuracy    <       0.00000109 Ry

     iteration # 10     ecut=    60.00 Ry     beta= 0.70
     Davidson diagonalization with overlap
     ethr =  3.02E-09,  avg # of iterations =  4.2

     total cpu time spent up to now is       68.3 secs

     total energy              =    -383.12699162 Ry
     estimated scf accuracy    <       0.00000002 Ry

     iteration # 11     ecut=    60.00 Ry     beta= 0.70
     Davidson diagonalization with overlap
     ethr =  5.58E-11,  avg # of iterations =  3.3

     total cpu time spent up to now is       74.9 secs

     total energy              =    -383.12699162 Ry
     estimated scf accuracy    <       0.00000002 Ry

     iteration # 12     ecut=    60.00 Ry     beta= 0.70
     Davidson diagonalization with overlap
     ethr =  5.58E-11,  avg # of iterations =  1.6

     total cpu time spent up to now is       80.0 secs

     total energy              =    -383.12699161 Ry
     estimated scf accuracy    <       0.00000002 Ry

     iteration # 13     ecut=    60.00 Ry     beta= 0.70
     Davidson diagonalization with overlap
     ethr =  5.03E-11,  avg # of iterations =  2.0

     total cpu time spent up to now is       85.9 secs

     total energy              =    -383.12699162 Ry
     estimated scf accuracy    <          3.6E-09 Ry

     iteration # 14     ecut=    60.00 Ry     beta= 0.70
     Davidson diagonalization with overlap
     ethr =  1.01E-11,  avg # of iterations =  3.8

     total cpu time spent up to now is       92.1 secs

     total energy              =    -383.12699162 Ry
     estimated scf accuracy    <          2.5E-10 Ry

     iteration # 15     ecut=    60.00 Ry     beta= 0.70
     Davidson diagonalization with overlap
     ethr =  7.03E-13,  avg # of iterations =  3.2

     total cpu time spent up to now is       98.7 secs

     total energy              =    -383.12699162 Ry
     estimated scf accuracy    <          4.2E-12 Ry

     iteration # 16     ecut=    60.00 Ry     beta= 0.70
     Davidson diagonalization with overlap
     ethr =  1.00E-13,  avg # of iterations =  1.7

     total cpu time spent up to now is      103.9 secs

     total energy              =    -383.12699162 Ry
     estimated scf accuracy    <          4.4E-13 Ry

     iteration # 17     ecut=    60.00 Ry     beta= 0.70
     Davidson diagonalization with overlap
     ethr =  1.00E-13,  avg # of iterations =  1.0

     total cpu time spent up to now is      108.7 secs

     End of self-consistent calculation

          k = 0.0714 0.1237 0.0768 (  2423 PWs)   bands (ev):

    -6.0537  -5.3113  -3.7183  -3.6996  -3.6685  -3.6474  -3.6290  -3.4747
    -3.4684  -3.4008  -3.3724  -2.1785   3.1477   7.7721   8.1760   8.5727
     9.4363   9.5230

     occupation numbers 
     1.0000   1.0000   1.0000   1.0000   1.0000   1.0000   1.0000   1.0000
     1.0000   1.0000   1.0000   1.0000   1.0000   1.0000   1.0000   1.0000
     1.0000   1.0000

          k = 0.0714 0.1237 0.2305 (  2436 PWs)   bands (ev):

    -5.7658  -5.4476  -3.6974  -3.6867  -3.6708  -3.6601  -3.5589  -3.4456
    -3.4283  -3.4032  -3.3820  -2.9413   4.7969   6.8174   8.1808   8.6766
     8.8990   9.1769

     occupation numbers 
     1.0000   1.0000   1.0000   1.0000   1.0000   1.0000   1.0000   1.0000
     1.0000   1.0000   1.0000   1.0000   1.0000   1.0000   1.0000   1.0000
     1.0000   1.0000

          k = 0.0714 0.1237-0.2305 (  2436 PWs)   bands (ev):

    -5.7658  -5.4476  -3.6974  -3.6867  -3.6708  -3.6601  -3.5589  -3.4456
    -3.4283  -3.4032  -3.3820  -2.9413   4.7969   6.8174   8.1808   8.6766
     8.8990   9.1769

     occupation numbers 
     1.0000   1.0000   1.0000   1.0000   1.0000   1.0000   1.0000   1.0000
     1.0000   1.0000   1.0000   1.0000   1.0000   1.0000   1.0000   1.0000
     1.0000   1.0000

          k = 0.0714 0.1237-0.0768 (  2423 PWs)   bands (ev):

    -6.0537  -5.3113  -3.7183  -3.6996  -3.6685  -3.6474  -3.6290  -3.4747
    -3.4684  -3.4008  -3.3724  -2.1785   3.1477   7.7721   8.1760   8.5727
     9.4363   9.5230

     occupation numbers 
     1.0000   1.0000   1.0000   1.0000   1.0000   1.0000   1.0000   1.0000
     1.0000   1.0000   1.0000   1.0000   1.0000   1.0000   1.0000   1.0000
     1.0000   1.0000

          k = 0.0714 0.2887 0.0768 (  2435 PWs)   bands (ev):

    -5.6930  -5.2314  -3.6774  -3.6638  -3.6049  -3.5697  -3.5052  -3.4724
    -3.4476  -3.3880  -3.3216  -1.8581   3.6758   5.8661   6.5850   7.6754
     8.9553   9.0533

     occupation numbers 
     1.0000   1.0000   1.0000   1.0000   1.0000   1.0000   1.0000   1.0000
     1.0000   1.0000   1.0000   1.0000   1.0000   1.0000   1.0000   1.0000
     1.0000   1.0000

          k = 0.0714 0.2887 0.2305 (  2430 PWs)   bands (ev):

    -5.4939  -5.3012  -3.6690  -3.6385  -3.6320  -3.5951  -3.5062  -3.4933
    -3.4222  -3.3953  -3.1046  -2.5470   4.6037   5.6262   6.9699   7.9681
     8.3642   8.6099

     occupation numbers 
     1.0000   1.0000   1.0000   1.0000   1.0000   1.0000   1.0000   1.0000
     1.0000   1.0000   1.0000   1.0000   1.0000   1.0000   1.0000   1.0000
     1.0000   1.0000

          k = 0.0714 0.2887-0.2305 (  2430 PWs)   bands (ev):

    -5.4939  -5.3012  -3.6690  -3.6385  -3.6320  -3.5951  -3.5062  -3.4933
    -3.4222  -3.3953  -3.1046  -2.5470   4.6037   5.6262   6.9699   7.9681
     8.3642   8.6099

     occupation numbers 
     1.0000   1.0000   1.0000   1.0000   1.0000   1.0000   1.0000   1.0000
     1.0000   1.0000   1.0000   1.0000   1.0000   1.0000   1.0000   1.0000
     1.0000   1.0000

          k = 0.0714 0.2887-0.0768 (  2435 PWs)   bands (ev):

    -5.6930  -5.2314  -3.6774  -3.6638  -3.6049  -3.5697  -3.5052  -3.4724
    -3.4476  -3.3880  -3.3216  -1.8581   3.6758   5.8661   6.5850   7.6754
     8.9553   9.0533

     occupation numbers 
     1.0000   1.0000   1.0000   1.0000   1.0000   1.0000   1.0000   1.0000
     1.0000   1.0000   1.0000   1.0000   1.0000   1.0000   1.0000   1.0000
     1.0000   1.0000

          k = 0.0714 0.4536 0.0768 (  2414 PWs)   bands (ev):

    -5.3934  -5.1827  -3.6707  -3.6482  -3.5610  -3.5211  -3.4925  -3.4547
    -3.4032  -3.3624  -2.6576  -1.5945   3.5298   4.7427   5.5742   6.9712
     8.1211   8.5935

     occupation numbers 
     1.0000   1.0000   1.0000   1.0000   1.0000   1.0000   1.0000   1.0000
     1.0000   1.0000   1.0000   1.0000   1.0000   1.0000   1.0000   1.0000
     1.0000   1.0000

          k = 0.0714 0.4536 0.2305 (  2425 PWs)   bands (ev):

    -5.2893  -5.2026  -3.6753  -3.6359  -3.5989  -3.5323  -3.4859  -3.4451
    -3.3944  -3.3809  -2.4399  -2.0068   3.4727   4.0353   6.9208   7.4704
     7.9513   8.3504

     occupation numbers 
     1.0000   1.0000   1.0000   1.0000   1.0000   1.0000   1.0000   1.0000
     1.0000   1.0000   1.0000   1.0000   1.0000   1.0000   1.0000   1.0000
     1.0000   1.0000

          k = 0.0714 0.4536-0.2305 (  2425 PWs)   bands (ev):

    -5.2893  -5.2026  -3.6753  -3.6359  -3.5989  -3.5323  -3.4859  -3.4451
    -3.3944  -3.3809  -2.4399  -2.0068   3.4727   4.0353   6.9208   7.4704
     7.9513   8.3504

     occupation numbers 
     1.0000   1.0000   1.0000   1.0000   1.0000   1.0000   1.0000   1.0000
     1.0000   1.0000   1.0000   1.0000   1.0000   1.0000   1.0000   1.0000
     1.0000   1.0000

          k = 0.0714 0.4536-0.0768 (  2414 PWs)   bands (ev):

    -5.3934  -5.1827  -3.6707  -3.6482  -3.5610  -3.5211  -3.4925  -3.4547
    -3.4032  -3.3624  -2.6576  -1.5945   3.5298   4.7427   5.5742   6.9712
     8.1211   8.5935

     occupation numbers 
     1.0000   1.0000   1.0000   1.0000   1.0000   1.0000   1.0000   1.0000
     1.0000   1.0000   1.0000   1.0000   1.0000   1.0000   1.0000   1.0000
     1.0000   1.0000

          k = 0.0714-0.5361 0.0768 (  2409 PWs)   bands (ev):

    -5.3336  -5.1755  -3.6752  -3.6460  -3.5472  -3.5326  -3.4760  -3.4409
    -3.3895  -3.3581  -2.2728  -1.6665   3.2778   4.3699   5.7589   6.8539
     7.7344   8.4858

     occupation numbers 
     1.0000   1.0000   1.0000   1.0000   1.0000   1.0000   1.0000   1.0000
     1.0000   1.0000   1.0000   1.0000   1.0000   1.0000   1.0000   1.0000
     1.0000   1.0000

          k = 0.0714-0.5361 0.2305 (  2410 PWs)   bands (ev):

    -5.2506  -5.1852  -3.6804  -3.6389  -3.5955  -3.5199  -3.4768  -3.4256
    -3.3855  -3.3761  -2.1343  -1.8788   3.0963   3.5620   6.9518   7.4946
     7.8198   8.2742

     occupation numbers 
     1.0000   1.0000   1.0000   1.0000   1.0000   1.0000   1.0000   1.0000
     1.0000   1.0000   1.0000   1.0000   1.0000   1.0000   1.0000   1.0000
     1.0000   1.0000

          k = 0.0714-0.5361-0.2305 (  2410 PWs)   bands (ev):

    -5.2506  -5.1852  -3.6804  -3.6389  -3.5955  -3.5199  -3.4768  -3.4256
    -3.3855  -3.3761  -2.1343  -1.8788   3.0963   3.5620   6.9518   7.4946
     7.8198   8.2742

     occupation numbers 
     1.0000   1.0000   1.0000   1.0000   1.0000   1.0000   1.0000   1.0000
     1.0000   1.0000   1.0000   1.0000   1.0000   1.0000   1.0000   1.0000
     1.0000   1.0000

          k = 0.0714-0.5361-0.0768 (  2409 PWs)   bands (ev):

    -5.3336  -5.1755  -3.6752  -3.6460  -3.5472  -3.5326  -3.4760  -3.4409
    -3.3895  -3.3581  -2.2728  -1.6665   3.2778   4.3699   5.7589   6.8539
     7.7344   8.4858

     occupation numbers 
     1.0000   1.0000   1.0000   1.0000   1.0000   1.0000   1.0000   1.0000
     1.0000   1.0000   1.0000   1.0000   1.0000   1.0000   1.0000   1.0000
     1.0000   1.0000

          k = 0.0714-0.3712 0.0768 (  2421 PWs)   bands (ev):

    -5.5161  -5.2006  -3.6678  -3.6542  -3.5798  -3.5260  -3.5093  -3.4690
    -3.4259  -3.3693  -3.0527  -1.6807   3.8005   5.1533   5.8393   7.2580
     8.5763   8.7939

     occupation numbers 
     1.0000   1.0000   1.0000   1.0000   1.0000   1.0000   1.0000   1.0000
     1.0000   1.0000   1.0000   1.0000   1.0000   1.0000   1.0000   1.0000
     1.0000   1.0000

          k = 0.0714-0.3712 0.2305 (  2424 PWs)   bands (ev):

    -5.3708  -5.2407  -3.6689  -3.6332  -3.6101  -3.5585  -3.4969  -3.4734
    -3.4089  -3.3887  -2.8056  -2.2667   4.0787   4.7867   6.8395   7.6480
     8.1605   8.4379

     occupation numbers 
     1.0000   1.0000   1.0000   1.0000   1.0000   1.0000   1.0000   1.0000
     1.0000   1.0000   1.0000   1.0000   1.0000   1.0000   1.0000   1.0000
     1.0000   1.0000

          k = 0.0714-0.3712-0.2305 (  2424 PWs)   bands (ev):

    -5.3708  -5.2407  -3.6689  -3.6332  -3.6101  -3.5585  -3.4969  -3.4734
    -3.4089  -3.3887  -2.8056  -2.2667   4.0787   4.7867   6.8395   7.6480
     8.1605   8.4379

     occupation numbers 
     1.0000   1.0000   1.0000   1.0000   1.0000   1.0000   1.0000   1.0000
     1.0000   1.0000   1.0000   1.0000   1.0000   1.0000   1.0000   1.0000
     1.0000   1.0000

          k = 0.0714-0.3712-0.0768 (  2421 PWs)   bands (ev):

    -5.5161  -5.2006  -3.6678  -3.6542  -3.5798  -3.5260  -3.5093  -3.4690
    -3.4259  -3.3693  -3.0527  -1.6807   3.8005   5.1533   5.8393   7.2580
     8.5763   8.7939

     occupation numbers 
     1.0000   1.0000   1.0000   1.0000   1.0000   1.0000   1.0000   1.0000
     1.0000   1.0000   1.0000   1.0000   1.0000   1.0000   1.0000   1.0000
     1.0000   1.0000

          k = 0.0714-0.2062 0.0768 (  2431 PWs)   bands (ev):

    -5.8889  -5.2718  -3.6978  -3.6801  -3.6320  -3.6160  -3.5628  -3.4803
    -3.4661  -3.4200  -3.3670  -2.0397   3.3875   6.8522   7.4031   8.1539
     9.2437   9.3059

     occupation numbers 
     1.0000   1.0000   1.0000   1.0000   1.0000   1.0000   1.0000   1.0000
     1.0000   1.0000   1.0000   1.0000   1.0000   1.0000   1.0000   1.0000
     1.0000   1.0000

          k = 0.0714-0.2062 0.2305 (  2432 PWs)   bands (ev):

    -5.6381  -5.3766  -3.6811  -3.6617  -3.6520  -3.6317  -3.5343  -3.4746
    -3.4287  -3.3990  -3.2933  -2.7787   4.8042   6.3664   7.4896   8.3191
     8.5897   8.8990

     occupation numbers 
     1.0000   1.0000   1.0000   1.0000   1.0000   1.0000   1.0000   1.0000
     1.0000   1.0000   1.0000   1.0000   1.0000   1.0000   1.0000   1.0000
     1.0000   1.0000

          k = 0.0714-0.2062-0.2305 (  2432 PWs)   bands (ev):

    -5.6381  -5.3766  -3.6811  -3.6617  -3.6520  -3.6317  -3.5343  -3.4746
    -3.4287  -3.3990  -3.2933  -2.7787   4.8042   6.3664   7.4896   8.3191
     8.5897   8.8990

     occupation numbers 
     1.0000   1.0000   1.0000   1.0000   1.0000   1.0000   1.0000   1.0000
     1.0000   1.0000   1.0000   1.0000   1.0000   1.0000   1.0000   1.0000
     1.0000   1.0000

          k = 0.0714-0.2062-0.0768 (  2431 PWs)   bands (ev):

    -5.8889  -5.2718  -3.6978  -3.6801  -3.6320  -3.6160  -3.5628  -3.4803
    -3.4661  -3.4200  -3.3670  -2.0397   3.3875   6.8522   7.4031   8.1539
     9.2437   9.3059

     occupation numbers 
     1.0000   1.0000   1.0000   1.0000   1.0000   1.0000   1.0000   1.0000
     1.0000   1.0000   1.0000   1.0000   1.0000   1.0000   1.0000   1.0000
     1.0000   1.0000

          k = 0.0714-0.0412 0.0768 (  2435 PWs)   bands (ev):

    -6.1465  -5.3360  -3.7285  -3.7127  -3.7002  -3.6573  -3.6529  -3.4699
    -3.4673  -3.3851  -3.3745  -2.2528   3.0185   8.3522   8.6280   8.8897
     9.5564   9.6521

     occupation numbers 
     1.0000   1.0000   1.0000   1.0000   1.0000   1.0000   1.0000   1.0000
     1.0000   1.0000   1.0000   1.0000   1.0000   1.0000   1.0000   1.0000
     1.0000   1.0000

          k = 0.0714-0.0412 0.2305 (  2435 PWs)   bands (ev):

    -5.8400  -5.4908  -3.7064  -3.7020  -3.6815  -3.6770  -3.5743  -3.4339
    -3.4233  -3.4119  -3.3958  -3.0289   4.7585   6.9854   8.6813   8.9153
     9.1716   9.3391

     occupation numbers 
     1.0000   1.0000   1.0000   1.0000   1.0000   1.0000   1.0000   1.0000
     1.0000   1.0000   1.0000   1.0000   1.0000   1.0000   1.0000   1.0000
     1.0000   1.0000

          k = 0.0714-0.0412-0.2305 (  2435 PWs)   bands (ev):

    -5.8400  -5.4908  -3.7064  -3.7020  -3.6815  -3.6770  -3.5743  -3.4339
    -3.4233  -3.4119  -3.3958  -3.0289   4.7585   6.9854   8.6813   8.9153
     9.1716   9.3391

     occupation numbers 
     1.0000   1.0000   1.0000   1.0000   1.0000   1.0000   1.0000   1.0000
     1.0000   1.0000   1.0000   1.0000   1.0000   1.0000   1.0000   1.0000
     1.0000   1.0000

          k = 0.0714-0.0412-0.0768 (  2435 PWs)   bands (ev):

    -6.1465  -5.3360  -3.7285  -3.7127  -3.7002  -3.6573  -3.6529  -3.4699
    -3.4673  -3.3851  -3.3745  -2.2528   3.0185   8.3522   8.6280   8.8897
     9.5564   9.6521

     occupation numbers 
     1.0000   1.0000   1.0000   1.0000   1.0000   1.0000   1.0000   1.0000
     1.0000   1.0000   1.0000   1.0000   1.0000   1.0000   1.0000   1.0000
     1.0000   1.0000

          k = 0.2143 0.2062 0.0768 (  2435 PWs)   bands (ev):

    -5.6930  -5.2314  -3.6774  -3.6638  -3.6049  -3.5697  -3.5052  -3.4724
    -3.4476  -3.3880  -3.3216  -1.8581   3.6758   5.8661   6.5850   7.6754
     8.9553   9.0533

     occupation numbers 
     1.0000   1.0000   1.0000   1.0000   1.0000   1.0000   1.0000   1.0000
     1.0000   1.0000   1.0000   1.0000   1.0000   1.0000   1.0000   1.0000
     1.0000   1.0000

          k = 0.2143 0.2062 0.2305 (  2430 PWs)   bands (ev):

    -5.4939  -5.3012  -3.6690  -3.6385  -3.6320  -3.5951  -3.5062  -3.4933
    -3.4222  -3.3953  -3.1046  -2.5470   4.6037   5.6262   6.9699   7.9681
     8.3642   8.6099

     occupation numbers 
     1.0000   1.0000   1.0000   1.0000   1.0000   1.0000   1.0000   1.0000
     1.0000   1.0000   1.0000   1.0000   1.0000   1.0000   1.0000   1.0000
     1.0000   1.0000

          k = 0.2143 0.2062-0.2305 (  2430 PWs)   bands (ev):

    -5.4939  -5.3012  -3.6690  -3.6385  -3.6320  -3.5951  -3.5062  -3.4933
    -3.4222  -3.3953  -3.1046  -2.5470   4.6037   5.6262   6.9699   7.9681
     8.3642   8.6099

     occupation numbers 
     1.0000   1.0000   1.0000   1.0000   1.0000   1.0000   1.0000   1.0000
     1.0000   1.0000   1.0000   1.0000   1.0000   1.0000   1.0000   1.0000
     1.0000   1.0000

          k = 0.2143 0.2062-0.0768 (  2435 PWs)   bands (ev):

    -5.6930  -5.2314  -3.6774  -3.6638  -3.6049  -3.5697  -3.5052  -3.4724
    -3.4476  -3.3880  -3.3216  -1.8581   3.6758   5.8661   6.5850   7.6754
     8.9553   9.0533

     occupation numbers 
     1.0000   1.0000   1.0000   1.0000   1.0000   1.0000   1.0000   1.0000
     1.0000   1.0000   1.0000   1.0000   1.0000   1.0000   1.0000   1.0000
     1.0000   1.0000

          k = 0.2143 0.3712 0.0768 (  2422 PWs)   bands (ev):

    -5.4174  -5.1879  -3.6832  -3.6210  -3.5575  -3.5411  -3.4923  -3.4733
    -3.4112  -3.3916  -2.7958  -1.5615   3.9076   5.0666   5.6714   6.4170
     8.0234   8.3834

     occupation numbers 
     1.0000   1.0000   1.0000   1.0000   1.0000   1.0000   1.0000   1.0000
     1.0000   1.0000   1.0000   1.0000   1.0000   1.0000   1.0000   1.0000
     1.0000   1.0000

          k = 0.2143 0.3712 0.2305 (  2426 PWs)   bands (ev):

    -5.3041  -5.2100  -3.6380  -3.6340  -3.5935  -3.5663  -3.5012  -3.4839
    -3.4017  -3.3924  -2.5539  -2.0595   3.9639   4.5114   6.6257   7.0960
     7.4350   8.4316

     occupation numbers 
     1.0000   1.0000   1.0000   1.0000   1.0000   1.0000   1.0000   1.0000
     1.0000   1.0000   1.0000   1.0000   1.0000   1.0000   1.0000   1.0000
     1.0000   1.0000

          k = 0.2143 0.3712-0.2305 (  2426 PWs)   bands (ev):

    -5.3041  -5.2100  -3.6380  -3.6340  -3.5935  -3.5663  -3.5012  -3.4839
    -3.4017  -3.3924  -2.5539  -2.0595   3.9639   4.5114   6.6257   7.0960
     7.4350   8.4316

     occupation numbers 
     1.0000   1.0000   1.0000   1.0000   1.0000   1.0000   1.0000   1.0000
     1.0000   1.0000   1.0000   1.0000   1.0000   1.0000   1.0000   1.0000
     1.0000   1.0000

          k = 0.2143 0.3712-0.0768 (  2422 PWs)   bands (ev):

    -5.4174  -5.1879  -3.6832  -3.6210  -3.5575  -3.5411  -3.4923  -3.4733
    -3.4112  -3.3916  -2.7958  -1.5615   3.9076   5.0666   5.6714   6.4170
     8.0234   8.3834

     occupation numbers 
     1.0000   1.0000   1.0000   1.0000   1.0000   1.0000   1.0000   1.0000
     1.0000   1.0000   1.0000   1.0000   1.0000   1.0000   1.0000   1.0000
     1.0000   1.0000

          k = 0.2143 0.5361 0.0768 (  2415 PWs)   bands (ev):

    -5.2711  -5.1814  -3.7021  -3.5954  -3.5323  -3.5003  -3.4940  -3.4544
    -3.4159  -3.3902  -2.0501  -1.5708   3.6889   4.4183   5.3072   6.4052
     7.3606   7.5880

     occupation numbers 
     1.0000   1.0000   1.0000   1.0000   1.0000   1.0000   1.0000   1.0000
     1.0000   1.0000   1.0000   1.0000   1.0000   1.0000   1.0000   1.0000
     1.0000   1.0000

          k = 0.2143 0.5361 0.2305 (  2405 PWs)   bands (ev):

    -5.2105  -5.1736  -3.6420  -3.6169  -3.6024  -3.5341  -3.4698  -3.4488
    -3.4118  -3.4031  -1.9265  -1.7233   3.4121   3.7227   5.7502   6.6092
     7.7026   8.2639

     occupation numbers 
     1.0000   1.0000   1.0000   1.0000   1.0000   1.0000   1.0000   1.0000
     1.0000   1.0000   1.0000   1.0000   1.0000   1.0000   1.0000   1.0000
     1.0000   1.0000

          k = 0.2143 0.5361-0.2305 (  2405 PWs)   bands (ev):

    -5.2105  -5.1736  -3.6420  -3.6169  -3.6024  -3.5341  -3.4698  -3.4488
    -3.4118  -3.4031  -1.9265  -1.7233   3.4121   3.7227   5.7502   6.6092
     7.7026   8.2639

     occupation numbers 
     1.0000   1.0000   1.0000   1.0000   1.0000   1.0000   1.0000   1.0000
     1.0000   1.0000   1.0000   1.0000   1.0000   1.0000   1.0000   1.0000
     1.0000   1.0000

          k = 0.2143 0.5361-0.0768 (  2415 PWs)   bands (ev):

    -5.2711  -5.1814  -3.7021  -3.5954  -3.5323  -3.5003  -3.4940  -3.4544
    -3.4159  -3.3902  -2.0501  -1.5708   3.6889   4.4183   5.3072   6.4052
     7.3606   7.5880

     occupation numbers 
     1.0000   1.0000   1.0000   1.0000   1.0000   1.0000   1.0000   1.0000
     1.0000   1.0000   1.0000   1.0000   1.0000   1.0000   1.0000   1.0000
     1.0000   1.0000

          k = 0.2143-0.4536 0.0768 (  2415 PWs)   bands (ev):

    -5.3225  -5.1802  -3.6952  -3.6021  -3.5411  -3.5176  -3.4908  -3.4701
    -3.4074  -3.3912  -2.4049  -1.5005   3.8214   4.5812   5.7263   6.0296
     7.6143   7.9601

     occupation numbers 
     1.0000   1.0000   1.0000   1.0000   1.0000   1.0000   1.0000   1.0000
     1.0000   1.0000   1.0000   1.0000   1.0000   1.0000   1.0000   1.0000
     1.0000   1.0000

          k = 0.2143-0.4536 0.2305 (  2420 PWs)   bands (ev):

    -5.2424  -5.1842  -3.6389  -3.6267  -3.5930  -3.5446  -3.4862  -3.4713
    -3.4057  -3.3918  -2.2022  -1.8289   3.6246   4.0219   6.0634   6.8498
     7.4734   8.3688

     occupation numbers 
     1.0000   1.0000   1.0000   1.0000   1.0000   1.0000   1.0000   1.0000
     1.0000   1.0000   1.0000   1.0000   1.0000   1.0000   1.0000   1.0000
     1.0000   1.0000

          k = 0.2143-0.4536-0.2305 (  2420 PWs)   bands (ev):

    -5.2424  -5.1842  -3.6389  -3.6267  -3.5930  -3.5446  -3.4862  -3.4713
    -3.4057  -3.3918  -2.2022  -1.8289   3.6246   4.0219   6.0634   6.8498
     7.4734   8.3688

     occupation numbers 
     1.0000   1.0000   1.0000   1.0000   1.0000   1.0000   1.0000   1.0000
     1.0000   1.0000   1.0000   1.0000   1.0000   1.0000   1.0000   1.0000
     1.0000   1.0000

          k = 0.2143-0.4536-0.0768 (  2415 PWs)   bands (ev):

    -5.3225  -5.1802  -3.6952  -3.6021  -3.5411  -3.5176  -3.4908  -3.4701
    -3.4074  -3.3912  -2.4049  -1.5005   3.8214   4.5812   5.7263   6.0296
     7.6143   7.9601

     occupation numbers 
     1.0000   1.0000   1.0000   1.0000   1.0000   1.0000   1.0000   1.0000
     1.0000   1.0000   1.0000   1.0000   1.0000   1.0000   1.0000   1.0000
     1.0000   1.0000

          k = 0.2143-0.2887 0.0768 (  2422 PWs)   bands (ev):

    -5.5481  -5.2061  -3.6705  -3.6502  -3.5810  -3.5562  -3.4998  -3.4685
    -3.4266  -3.3895  -3.1169  -1.7048   3.8534   5.5334   5.8807   7.1012
     8.5389   8.7350

     occupation numbers 
     1.0000   1.0000   1.0000   1.0000   1.0000   1.0000   1.0000   1.0000
     1.0000   1.0000   1.0000   1.0000   1.0000   1.0000   1.0000   1.0000
     1.0000   1.0000

          k = 0.2143-0.2887 0.2305 (  2430 PWs)   bands (ev):

    -5.3923  -5.2510  -3.6528  -3.6325  -3.6116  -3.5827  -3.5026  -3.4917
    -3.4062  -3.3983  -2.8725  -2.3226   4.3215   5.0752   6.9432   7.3449
     7.9780   8.4515

     occupation numbers 
     1.0000   1.0000   1.0000   1.0000   1.0000   1.0000   1.0000   1.0000
     1.0000   1.0000   1.0000   1.0000   1.0000   1.0000   1.0000   1.0000
     1.0000   1.0000

          k = 0.2143-0.2887-0.2305 (  2430 PWs)   bands (ev):

    -5.3923  -5.2510  -3.6528  -3.6325  -3.6116  -3.5827  -3.5026  -3.4917
    -3.4062  -3.3983  -2.8725  -2.3226   4.3215   5.0752   6.9432   7.3449
     7.9780   8.4515

     occupation numbers 
     1.0000   1.0000   1.0000   1.0000   1.0000   1.0000   1.0000   1.0000
     1.0000   1.0000   1.0000   1.0000   1.0000   1.0000   1.0000   1.0000
     1.0000   1.0000

          k = 0.2143-0.2887-0.0768 (  2422 PWs)   bands (ev):

    -5.5481  -5.2061  -3.6705  -3.6502  -3.5810  -3.5562  -3.4998  -3.4685
    -3.4266  -3.3895  -3.1169  -1.7048   3.8534   5.5334   5.8807   7.1012
     8.5389   8.7350

     occupation numbers 
     1.0000   1.0000   1.0000   1.0000   1.0000   1.0000   1.0000   1.0000
     1.0000   1.0000   1.0000   1.0000   1.0000   1.0000   1.0000   1.0000
     1.0000   1.0000

          k = 0.2143-0.1237 0.0768 (  2422 PWs)   bands (ev):

    -5.8174  -5.2563  -3.6930  -3.6699  -3.6245  -3.5846  -3.5385  -3.4866
    -3.4602  -3.4091  -3.3682  -1.9766   3.4936   6.3572   7.2017   7.9895
     9.1401   9.3048

     occupation numbers 
     1.0000   1.0000   1.0000   1.0000   1.0000   1.0000   1.0000   1.0000
     1.0000   1.0000   1.0000   1.0000   1.0000   1.0000   1.0000   1.0000
     1.0000   1.0000

          k = 0.2143-0.1237 0.2305 (  2428 PWs)   bands (ev):

    -5.5846  -5.3481  -3.6787  -3.6492  -3.6482  -3.6127  -3.5230  -3.4825
    -3.4314  -3.3934  -3.2389  -2.7015   4.7549   6.0889   7.2003   8.3451
     8.4122   8.8869

     occupation numbers 
     1.0000   1.0000   1.0000   1.0000   1.0000   1.0000   1.0000   1.0000
     1.0000   1.0000   1.0000   1.0000   1.0000   1.0000   1.0000   1.0000
     1.0000   1.0000

          k = 0.2143-0.1237-0.2305 (  2428 PWs)   bands (ev):

    -5.5846  -5.3481  -3.6787  -3.6492  -3.6482  -3.6127  -3.5230  -3.4825
    -3.4314  -3.3934  -3.2389  -2.7015   4.7549   6.0889   7.2003   8.3451
     8.4122   8.8869

     occupation numbers 
     1.0000   1.0000   1.0000   1.0000   1.0000   1.0000   1.0000   1.0000
     1.0000   1.0000   1.0000   1.0000   1.0000   1.0000   1.0000   1.0000
     1.0000   1.0000

          k = 0.2143-0.1237-0.0768 (  2422 PWs)   bands (ev):

    -5.8174  -5.2563  -3.6930  -3.6699  -3.6245  -3.5846  -3.5385  -3.4866
    -3.4602  -3.4091  -3.3682  -1.9766   3.4936   6.3572   7.2017   7.9895
     9.1401   9.3048

     occupation numbers 
     1.0000   1.0000   1.0000   1.0000   1.0000   1.0000   1.0000   1.0000
     1.0000   1.0000   1.0000   1.0000   1.0000   1.0000   1.0000   1.0000
     1.0000   1.0000

          k = 0.2143 0.0412 0.0768 (  2431 PWs)   bands (ev):

    -5.8889  -5.2718  -3.6978  -3.6801  -3.6320  -3.6160  -3.5628  -3.4803
    -3.4661  -3.4200  -3.3670  -2.0397   3.3875   6.8522   7.4031   8.1539
     9.2437   9.3059

     occupation numbers 
     1.0000   1.0000   1.0000   1.0000   1.0000   1.0000   1.0000   1.0000
     1.0000   1.0000   1.0000   1.0000   1.0000   1.0000   1.0000   1.0000
     1.0000   1.0000

          k = 0.2143 0.0412 0.2305 (  2432 PWs)   bands (ev):

    -5.6381  -5.3766  -3.6811  -3.6617  -3.6520  -3.6317  -3.5343  -3.4746
    -3.4287  -3.3990  -3.2933  -2.7787   4.8042   6.3664   7.4896   8.3191
     8.5897   8.8990

     occupation numbers 
     1.0000   1.0000   1.0000   1.0000   1.0000   1.0000   1.0000   1.0000
     1.0000   1.0000   1.0000   1.0000   1.0000   1.0000   1.0000   1.0000
     1.0000   1.0000

          k = 0.2143 0.0412-0.2305 (  2432 PWs)   bands (ev):

    -5.6381  -5.3766  -3.6811  -3.6617  -3.6520  -3.6317  -3.5343  -3.4746
    -3.4287  -3.3990  -3.2933  -2.7787   4.8042   6.3664   7.4896   8.3191
     8.5897   8.8990

     occupation numbers 
     1.0000   1.0000   1.0000   1.0000   1.0000   1.0000   1.0000   1.0000
     1.0000   1.0000   1.0000   1.0000   1.0000   1.0000   1.0000   1.0000
     1.0000   1.0000

          k = 0.2143 0.0412-0.0768 (  2431 PWs)   bands (ev):

    -5.8889  -5.2718  -3.6978  -3.6801  -3.6320  -3.6160  -3.5628  -3.4803
    -3.4661  -3.4200  -3.3670  -2.0397   3.3875   6.8522   7.4031   8.1539
     9.2437   9.3059

     occupation numbers 
     1.0000   1.0000   1.0000   1.0000   1.0000   1.0000   1.0000   1.0000
     1.0000   1.0000   1.0000   1.0000   1.0000   1.0000   1.0000   1.0000
     1.0000   1.0000

          k = 0.3571 0.2887 0.0768 (  2414 PWs)   bands (ev):

    -5.3934  -5.1827  -3.6707  -3.6482  -3.5610  -3.5211  -3.4925  -3.4547
    -3.4032  -3.3624  -2.6576  -1.5945   3.5298   4.7427   5.5742   6.9712
     8.1211   8.5935

     occupation numbers 
     1.0000   1.0000   1.0000   1.0000   1.0000   1.0000   1.0000   1.0000
     1.0000   1.0000   1.0000   1.0000   1.0000   1.0000   1.0000   1.0000
     1.0000   1.0000

          k = 0.3571 0.2887 0.2305 (  2425 PWs)   bands (ev):

    -5.2893  -5.2026  -3.6753  -3.6359  -3.5989  -3.5323  -3.4859  -3.4451
    -3.3944  -3.3809  -2.4399  -2.0068   3.4727   4.0353   6.9208   7.4704
     7.9513   8.3504

     occupation numbers 
     1.0000   1.0000   1.0000   1.0000   1.0000   1.0000   1.0000   1.0000
     1.0000   1.0000   1.0000   1.0000   1.0000   1.0000   1.0000   1.0000
     1.0000   1.0000

          k = 0.3571 0.2887-0.2305 (  2425 PWs)   bands (ev):

    -5.2893  -5.2026  -3.6753  -3.6359  -3.5989  -3.5323  -3.4859  -3.4451
    -3.3944  -3.3809  -2.4399  -2.0068   3.4727   4.0353   6.9208   7.4704
     7.9513   8.3504

     occupation numbers 
     1.0000   1.0000   1.0000   1.0000   1.0000   1.0000   1.0000   1.0000
     1.0000   1.0000   1.0000   1.0000   1.0000   1.0000   1.0000   1.0000
     1.0000   1.0000

          k = 0.3571 0.2887-0.0768 (  2414 PWs)   bands (ev):

    -5.3934  -5.1827  -3.6707  -3.6482  -3.5610  -3.5211  -3.4925  -3.4547
    -3.4032  -3.3624  -2.6576  -1.5945   3.5298   4.7427   5.5742   6.9712
     8.1211   8.5935

     occupation numbers 
     1.0000   1.0000   1.0000   1.0000   1.0000   1.0000   1.0000   1.0000
     1.0000   1.0000   1.0000   1.0000   1.0000   1.0000   1.0000   1.0000
     1.0000   1.0000

          k = 0.3571 0.4536 0.0768 (  2415 PWs)   bands (ev):

    -5.2711  -5.1814  -3.7021  -3.5954  -3.5323  -3.5003  -3.4940  -3.4544
    -3.4159  -3.3902  -2.0501  -1.5708   3.6889   4.4183   5.3072   6.4052
     7.3606   7.5880

     occupation numbers 
     1.0000   1.0000   1.0000   1.0000   1.0000   1.0000   1.0000   1.0000
     1.0000   1.0000   1.0000   1.0000   1.0000   1.0000   1.0000   1.0000
     1.0000   1.0000

          k = 0.3571 0.4536 0.2305 (  2405 PWs)   bands (ev):

    -5.2105  -5.1736  -3.6420  -3.6169  -3.6024  -3.5341  -3.4698  -3.4488
    -3.4118  -3.4031  -1.9265  -1.7233   3.4121   3.7227   5.7502   6.6092
     7.7026   8.2639

     occupation numbers 
     1.0000   1.0000   1.0000   1.0000   1.0000   1.0000   1.0000   1.0000
     1.0000   1.0000   1.0000   1.0000   1.0000   1.0000   1.0000   1.0000
     1.0000   1.0000

          k = 0.3571 0.4536-0.2305 (  2405 PWs)   bands (ev):

    -5.2105  -5.1736  -3.6420  -3.6169  -3.6024  -3.5341  -3.4698  -3.4488
    -3.4118  -3.4031  -1.9265  -1.7233   3.4121   3.7227   5.7502   6.6092
     7.7026   8.2639

     occupation numbers 
     1.0000   1.0000   1.0000   1.0000   1.0000   1.0000   1.0000   1.0000
     1.0000   1.0000   1.0000   1.0000   1.0000   1.0000   1.0000   1.0000
     1.0000   1.0000

          k = 0.3571 0.4536-0.0768 (  2415 PWs)   bands (ev):

    -5.2711  -5.1814  -3.7021  -3.5954  -3.5323  -3.5003  -3.4940  -3.4544
    -3.4159  -3.3902  -2.0501  -1.5708   3.6889   4.4183   5.3072   6.4052
     7.3606   7.5880

     occupation numbers 
     1.0000   1.0000   1.0000   1.0000   1.0000   1.0000   1.0000   1.0000
     1.0000   1.0000   1.0000   1.0000   1.0000   1.0000   1.0000   1.0000
     1.0000   1.0000

          k = 0.3571 0.6186 0.0768 (  2414 PWs)   bands (ev):

    -5.2290  -5.1951  -3.7133  -3.5581  -3.5316  -3.5021  -3.4799  -3.4602
    -3.4358  -3.4012  -1.8149  -1.6244   4.0192   4.3570   4.7166   6.7540
     6.9777   7.2281

     occupation numbers 
     1.0000   1.0000   1.0000   1.0000   1.0000   1.0000   1.0000   1.0000
     1.0000   1.0000   1.0000   1.0000   1.0000   1.0000   1.0000   1.0000
     1.0000   1.0000

          k = 0.3571 0.6186 0.2305 (  2406 PWs)   bands (ev):

    -5.1865  -5.1725  -3.6400  -3.6025  -3.5946  -3.5374  -3.4561  -3.4492
    -3.4273  -3.4238  -1.7559  -1.6745   3.5892   3.7171   5.2218   6.1494
     7.9195   8.1447

     occupation numbers 
     1.0000   1.0000   1.0000   1.0000   1.0000   1.0000   1.0000   1.0000
     1.0000   1.0000   1.0000   1.0000   1.0000   1.0000   1.0000   1.0000
     1.0000   1.0000

          k = 0.3571 0.6186-0.2305 (  2406 PWs)   bands (ev):

    -5.1865  -5.1725  -3.6400  -3.6025  -3.5946  -3.5374  -3.4561  -3.4492
    -3.4273  -3.4238  -1.7559  -1.6745   3.5892   3.7171   5.2218   6.1494
     7.9195   8.1447

     occupation numbers 
     1.0000   1.0000   1.0000   1.0000   1.0000   1.0000   1.0000   1.0000
     1.0000   1.0000   1.0000   1.0000   1.0000   1.0000   1.0000   1.0000
     1.0000   1.0000

          k = 0.3571 0.6186-0.0768 (  2414 PWs)   bands (ev):

    -5.2290  -5.1951  -3.7133  -3.5581  -3.5316  -3.5021  -3.4799  -3.4602
    -3.4358  -3.4012  -1.8149  -1.6244   4.0192   4.3570   4.7166   6.7540
     6.9777   7.2281

     occupation numbers 
     1.0000   1.0000   1.0000   1.0000   1.0000   1.0000   1.0000   1.0000
     1.0000   1.0000   1.0000   1.0000   1.0000   1.0000   1.0000   1.0000
     1.0000   1.0000

          k = 0.3571-0.3712 0.0768 (  2415 PWs)   bands (ev):

    -5.3276  -5.1780  -3.6835  -3.6311  -3.5443  -3.5133  -3.4907  -3.4533
    -3.4019  -3.3748  -2.3550  -1.5654   3.5209   4.5355   5.7115   6.3976
     7.8191   8.0573

     occupation numbers 
     1.0000   1.0000   1.0000   1.0000   1.0000   1.0000   1.0000   1.0000
     1.0000   1.0000   1.0000   1.0000   1.0000   1.0000   1.0000   1.0000
     1.0000   1.0000

          k = 0.3571-0.3712 0.2305 (  2418 PWs)   bands (ev):

    -5.2461  -5.1846  -3.6593  -3.6268  -3.6043  -3.5312  -3.4791  -3.4463
    -3.3969  -3.3878  -2.1760  -1.8473   3.3517   3.8049   6.4669   7.2680
     7.5077   8.3340

     occupation numbers 
     1.0000   1.0000   1.0000   1.0000   1.0000   1.0000   1.0000   1.0000
     1.0000   1.0000   1.0000   1.0000   1.0000   1.0000   1.0000   1.0000
     1.0000   1.0000

          k = 0.3571-0.3712-0.2305 (  2418 PWs)   bands (ev):

    -5.2461  -5.1846  -3.6593  -3.6268  -3.6043  -3.5312  -3.4791  -3.4463
    -3.3969  -3.3878  -2.1760  -1.8473   3.3517   3.8049   6.4669   7.2680
     7.5077   8.3340

     occupation numbers 
     1.0000   1.0000   1.0000   1.0000   1.0000   1.0000   1.0000   1.0000
     1.0000   1.0000   1.0000   1.0000   1.0000   1.0000   1.0000   1.0000
     1.0000   1.0000

          k = 0.3571-0.3712-0.0768 (  2415 PWs)   bands (ev):

    -5.3276  -5.1780  -3.6835  -3.6311  -3.5443  -3.5133  -3.4907  -3.4533
    -3.4019  -3.3748  -2.3550  -1.5654   3.5209   4.5355   5.7115   6.3976
     7.8191   8.0573

     occupation numbers 
     1.0000   1.0000   1.0000   1.0000   1.0000   1.0000   1.0000   1.0000
     1.0000   1.0000   1.0000   1.0000   1.0000   1.0000   1.0000   1.0000
     1.0000   1.0000

          k = 0.3571-0.2062 0.0768 (  2417 PWs)   bands (ev):

    -5.4603  -5.1916  -3.6736  -3.6446  -3.5756  -3.5194  -3.5030  -3.4609
    -3.4155  -3.3586  -2.9007  -1.6392   3.6645   4.9367   5.5993   7.3238
     8.3651   8.8700

     occupation numbers 
     1.0000   1.0000   1.0000   1.0000   1.0000   1.0000   1.0000   1.0000
     1.0000   1.0000   1.0000   1.0000   1.0000   1.0000   1.0000   1.0000
     1.0000   1.0000

          k = 0.3571-0.2062 0.2305 (  2424 PWs)   bands (ev):

    -5.3336  -5.2230  -3.6788  -3.6377  -3.6006  -3.5407  -3.4915  -3.4524
    -3.4038  -3.3812  -2.6607  -2.1570   3.7453   4.3899   6.8764   7.7329
     8.2579   8.3673

     occupation numbers 
     1.0000   1.0000   1.0000   1.0000   1.0000   1.0000   1.0000   1.0000
     1.0000   1.0000   1.0000   1.0000   1.0000   1.0000   1.0000   1.0000
     1.0000   1.0000

          k = 0.3571-0.2062-0.2305 (  2424 PWs)   bands (ev):

    -5.3336  -5.2230  -3.6788  -3.6377  -3.6006  -3.5407  -3.4915  -3.4524
    -3.4038  -3.3812  -2.6607  -2.1570   3.7453   4.3899   6.8764   7.7329
     8.2579   8.3673

     occupation numbers 
     1.0000   1.0000   1.0000   1.0000   1.0000   1.0000   1.0000   1.0000
     1.0000   1.0000   1.0000   1.0000   1.0000   1.0000   1.0000   1.0000
     1.0000   1.0000

          k = 0.3571-0.2062-0.0768 (  2417 PWs)   bands (ev):

    -5.4603  -5.1916  -3.6736  -3.6446  -3.5756  -3.5194  -3.5030  -3.4609
    -3.4155  -3.3586  -2.9007  -1.6392   3.6645   4.9367   5.5993   7.3238
     8.3651   8.8700

     occupation numbers 
     1.0000   1.0000   1.0000   1.0000   1.0000   1.0000   1.0000   1.0000
     1.0000   1.0000   1.0000   1.0000   1.0000   1.0000   1.0000   1.0000
     1.0000   1.0000

          k = 0.3571-0.0412 0.0768 (  2422 PWs)   bands (ev):

    -5.5481  -5.2061  -3.6705  -3.6502  -3.5810  -3.5562  -3.4998  -3.4685
    -3.4266  -3.3895  -3.1169  -1.7048   3.8534   5.5334   5.8807   7.1012
     8.5389   8.7350

     occupation numbers 
     1.0000   1.0000   1.0000   1.0000   1.0000   1.0000   1.0000   1.0000
     1.0000   1.0000   1.0000   1.0000   1.0000   1.0000   1.0000   1.0000
     1.0000   1.0000

          k = 0.3571-0.0412 0.2305 (  2430 PWs)   bands (ev):

    -5.3923  -5.2510  -3.6528  -3.6325  -3.6116  -3.5827  -3.5026  -3.4917
    -3.4062  -3.3983  -2.8725  -2.3226   4.3215   5.0752   6.9432   7.3449
     7.9780   8.4515

     occupation numbers 
     1.0000   1.0000   1.0000   1.0000   1.0000   1.0000   1.0000   1.0000
     1.0000   1.0000   1.0000   1.0000   1.0000   1.0000   1.0000   1.0000
     1.0000   1.0000

          k = 0.3571-0.0412-0.2305 (  2430 PWs)   bands (ev):

    -5.3923  -5.2510  -3.6528  -3.6325  -3.6116  -3.5827  -3.5026  -3.4917
    -3.4062  -3.3983  -2.8725  -2.3226   4.3215   5.0752   6.9432   7.3449
     7.9780   8.4515

     occupation numbers 
     1.0000   1.0000   1.0000   1.0000   1.0000   1.0000   1.0000   1.0000
     1.0000   1.0000   1.0000   1.0000   1.0000   1.0000   1.0000   1.0000
     1.0000   1.0000

          k = 0.3571-0.0412-0.0768 (  2422 PWs)   bands (ev):

    -5.5481  -5.2061  -3.6705  -3.6502  -3.5810  -3.5562  -3.4998  -3.4685
    -3.4266  -3.3895  -3.1169  -1.7048   3.8534   5.5334   5.8807   7.1012
     8.5389   8.7350

     occupation numbers 
     1.0000   1.0000   1.0000   1.0000   1.0000   1.0000   1.0000   1.0000
     1.0000   1.0000   1.0000   1.0000   1.0000   1.0000   1.0000   1.0000
     1.0000   1.0000

          k = 0.3571 0.1237 0.0768 (  2421 PWs)   bands (ev):

    -5.5161  -5.2006  -3.6678  -3.6542  -3.5798  -3.5260  -3.5093  -3.4690
    -3.4259  -3.3693  -3.0527  -1.6807   3.8005   5.1533   5.8393   7.2580
     8.5763   8.7939

     occupation numbers 
     1.0000   1.0000   1.0000   1.0000   1.0000   1.0000   1.0000   1.0000
     1.0000   1.0000   1.0000   1.0000   1.0000   1.0000   1.0000   1.0000
     1.0000   1.0000

          k = 0.3571 0.1237 0.2305 (  2424 PWs)   bands (ev):

    -5.3708  -5.2407  -3.6689  -3.6332  -3.6101  -3.5585  -3.4969  -3.4734
    -3.4089  -3.3887  -2.8056  -2.2667   4.0787   4.7867   6.8395   7.6480
     8.1605   8.4379

     occupation numbers 
     1.0000   1.0000   1.0000   1.0000   1.0000   1.0000   1.0000   1.0000
     1.0000   1.0000   1.0000   1.0000   1.0000   1.0000   1.0000   1.0000
     1.0000   1.0000

          k = 0.3571 0.1237-0.2305 (  2424 PWs)   bands (ev):

    -5.3708  -5.2407  -3.6689  -3.6332  -3.6101  -3.5585  -3.4969  -3.4734
    -3.4089  -3.3887  -2.8056  -2.2667   4.0787   4.7867   6.8395   7.6480
     8.1605   8.4379

     occupation numbers 
     1.0000   1.0000   1.0000   1.0000   1.0000   1.0000   1.0000   1.0000
     1.0000   1.0000   1.0000   1.0000   1.0000   1.0000   1.0000   1.0000
     1.0000   1.0000

          k = 0.3571 0.1237-0.0768 (  2421 PWs)   bands (ev):

    -5.5161  -5.2006  -3.6678  -3.6542  -3.5798  -3.5260  -3.5093  -3.4690
    -3.4259  -3.3693  -3.0527  -1.6807   3.8005   5.1533   5.8393   7.2580
     8.5763   8.7939

     occupation numbers 
     1.0000   1.0000   1.0000   1.0000   1.0000   1.0000   1.0000   1.0000
     1.0000   1.0000   1.0000   1.0000   1.0000   1.0000   1.0000   1.0000
     1.0000   1.0000

          k =-0.5000-0.2062 0.0768 (  2409 PWs)   bands (ev):

    -5.3336  -5.1755  -3.6752  -3.6460  -3.5472  -3.5326  -3.4760  -3.4409
    -3.3895  -3.3581  -2.2728  -1.6665   3.2778   4.3699   5.7589   6.8539
     7.7344   8.4858

     occupation numbers 
     1.0000   1.0000   1.0000   1.0000   1.0000   1.0000   1.0000   1.0000
     1.0000   1.0000   1.0000   1.0000   1.0000   1.0000   1.0000   1.0000
     1.0000   1.0000

          k =-0.5000-0.2062 0.2305 (  2410 PWs)   bands (ev):

    -5.2506  -5.1852  -3.6804  -3.6389  -3.5955  -3.5199  -3.4768  -3.4256
    -3.3855  -3.3761  -2.1343  -1.8788   3.0963   3.5620   6.9518   7.4946
     7.8198   8.2742

     occupation numbers 
     1.0000   1.0000   1.0000   1.0000   1.0000   1.0000   1.0000   1.0000
     1.0000   1.0000   1.0000   1.0000   1.0000   1.0000   1.0000   1.0000
     1.0000   1.0000

          k =-0.5000-0.2062-0.2305 (  2410 PWs)   bands (ev):

    -5.2506  -5.1852  -3.6804  -3.6389  -3.5955  -3.5199  -3.4768  -3.4256
    -3.3855  -3.3761  -2.1343  -1.8788   3.0963   3.5620   6.9518   7.4946
     7.8198   8.2742

     occupation numbers 
     1.0000   1.0000   1.0000   1.0000   1.0000   1.0000   1.0000   1.0000
     1.0000   1.0000   1.0000   1.0000   1.0000   1.0000   1.0000   1.0000
     1.0000   1.0000

          k =-0.5000-0.2062-0.0768 (  2409 PWs)   bands (ev):

    -5.3336  -5.1755  -3.6752  -3.6460  -3.5472  -3.5326  -3.4760  -3.4409
    -3.3895  -3.3581  -2.2728  -1.6665   3.2778   4.3699   5.7589   6.8539
     7.7344   8.4858

     occupation numbers 
     1.0000   1.0000   1.0000   1.0000   1.0000   1.0000   1.0000   1.0000
     1.0000   1.0000   1.0000   1.0000   1.0000   1.0000   1.0000   1.0000
     1.0000   1.0000

          k =-0.5000-0.0412 0.0768 (  2415 PWs)   bands (ev):

    -5.3225  -5.1802  -3.6952  -3.6021  -3.5411  -3.5176  -3.4908  -3.4701
    -3.4074  -3.3912  -2.4049  -1.5005   3.8214   4.5812   5.7263   6.0296
     7.6143   7.9601

     occupation numbers 
     1.0000   1.0000   1.0000   1.0000   1.0000   1.0000   1.0000   1.0000
     1.0000   1.0000   1.0000   1.0000   1.0000   1.0000   1.0000   1.0000
     1.0000   1.0000

          k =-0.5000-0.0412 0.2305 (  2420 PWs)   bands (ev):

    -5.2424  -5.1842  -3.6389  -3.6267  -3.5930  -3.5446  -3.4862  -3.4713
    -3.4057  -3.3918  -2.2022  -1.8289   3.6246   4.0219   6.0634   6.8498
     7.4734   8.3688

     occupation numbers 
     1.0000   1.0000   1.0000   1.0000   1.0000   1.0000   1.0000   1.0000
     1.0000   1.0000   1.0000   1.0000   1.0000   1.0000   1.0000   1.0000
     1.0000   1.0000

          k =-0.5000-0.0412-0.2305 (  2420 PWs)   bands (ev):

    -5.2424  -5.1842  -3.6389  -3.6267  -3.5930  -3.5446  -3.4862  -3.4713
    -3.4057  -3.3918  -2.2022  -1.8289   3.6246   4.0219   6.0634   6.8498
     7.4734   8.3688

     occupation numbers 
     1.0000   1.0000   1.0000   1.0000   1.0000   1.0000   1.0000   1.0000
     1.0000   1.0000   1.0000   1.0000   1.0000   1.0000   1.0000   1.0000
     1.0000   1.0000

          k =-0.5000-0.0412-0.0768 (  2415 PWs)   bands (ev):

    -5.3225  -5.1802  -3.6952  -3.6021  -3.5411  -3.5176  -3.4908  -3.4701
    -3.4074  -3.3912  -2.4049  -1.5005   3.8214   4.5812   5.7263   6.0296
     7.6143   7.9601

     occupation numbers 
     1.0000   1.0000   1.0000   1.0000   1.0000   1.0000   1.0000   1.0000
     1.0000   1.0000   1.0000   1.0000   1.0000   1.0000   1.0000   1.0000
     1.0000   1.0000

          k =-0.5000 0.1237 0.0768 (  2415 PWs)   bands (ev):

    -5.3276  -5.1780  -3.6835  -3.6311  -3.5443  -3.5133  -3.4907  -3.4533
    -3.4019  -3.3748  -2.3550  -1.5654   3.5209   4.5355   5.7115   6.3976
     7.8191   8.0573

     occupation numbers 
     1.0000   1.0000   1.0000   1.0000   1.0000   1.0000   1.0000   1.0000
     1.0000   1.0000   1.0000   1.0000   1.0000   1.0000   1.0000   1.0000
     1.0000   1.0000

          k =-0.5000 0.1237 0.2305 (  2418 PWs)   bands (ev):

    -5.2461  -5.1846  -3.6593  -3.6268  -3.6043  -3.5312  -3.4791  -3.4463
    -3.3969  -3.3878  -2.1760  -1.8473   3.3517   3.8049   6.4669   7.2680
     7.5077   8.3340

     occupation numbers 
     1.0000   1.0000   1.0000   1.0000   1.0000   1.0000   1.0000   1.0000
     1.0000   1.0000   1.0000   1.0000   1.0000   1.0000   1.0000   1.0000
     1.0000   1.0000

          k =-0.5000 0.1237-0.2305 (  2418 PWs)   bands (ev):

    -5.2461  -5.1846  -3.6593  -3.6268  -3.6043  -3.5312  -3.4791  -3.4463
    -3.3969  -3.3878  -2.1760  -1.8473   3.3517   3.8049   6.4669   7.2680
     7.5077   8.3340

     occupation numbers 
     1.0000   1.0000   1.0000   1.0000   1.0000   1.0000   1.0000   1.0000
     1.0000   1.0000   1.0000   1.0000   1.0000   1.0000   1.0000   1.0000
     1.0000   1.0000

          k =-0.5000 0.1237-0.0768 (  2415 PWs)   bands (ev):

    -5.3276  -5.1780  -3.6835  -3.6311  -3.5443  -3.5133  -3.4907  -3.4533
    -3.4019  -3.3748  -2.3550  -1.5654   3.5209   4.5355   5.7115   6.3976
     7.8191   8.0573

     occupation numbers 
     1.0000   1.0000   1.0000   1.0000   1.0000   1.0000   1.0000   1.0000
     1.0000   1.0000   1.0000   1.0000   1.0000   1.0000   1.0000   1.0000
     1.0000   1.0000

          k =-0.5000-0.8660 0.0768 (  2402 PWs)   bands (ev):

    -5.3362  -5.1745  -3.6783  -3.6425  -3.5458  -3.5448  -3.4707  -3.4375
    -3.3825  -3.3514  -2.2236  -1.7243   3.1923   4.2892   5.7866   7.0567
     7.6933   8.6822

     occupation numbers 
     1.0000   1.0000   1.0000   1.0000   1.0000   1.0000   1.0000   1.0000
     1.0000   1.0000   1.0000   1.0000   1.0000   1.0000   1.0000   1.0000
     1.0000   1.0000

          k =-0.5000-0.8660 0.2305 (  2412 PWs)   bands (ev):

    -5.2525  -5.1855  -3.6884  -3.6449  -3.5891  -3.5155  -3.4776  -3.4202
    -3.3793  -3.3690  -2.1102  -1.8983   2.9999   3.4631   7.1848   7.4842
     8.1475   8.1503

     occupation numbers 
     1.0000   1.0000   1.0000   1.0000   1.0000   1.0000   1.0000   1.0000
     1.0000   1.0000   1.0000   1.0000   1.0000   1.0000   1.0000   1.0000
     1.0000   1.0000

     highest occupied level (ev):     9.6521

!    total energy              =    -383.12699162 Ry
     estimated scf accuracy    <          8.0E-15 Ry

     The total energy is the sum of the following terms:
     one-electron contribution =    -179.17923741 Ry
     hartree contribution      =     128.09127996 Ry
     xc contribution           =     -98.86395686 Ry
     ewald contribution        =    -233.17507731 Ry

     convergence has been achieved in  17 iterations

     Forces acting on atoms (cartesian axes, Ry/au):

     atom    1 type  1   force =     0.00000310   -0.00000182   -0.00463936
     atom    2 type  1   force =    -0.00000308    0.00000180   -0.00463908
     atom    3 type  2   force =     0.00001558   -0.00000899    0.00463926
     atom    4 type  2   force =    -0.00001559    0.00000901    0.00463919
     The non-local contrib.  to forces
     atom    1 type  1   force =     0.00022273   -0.00012859   -0.01311646
     atom    2 type  1   force =    -0.00022274    0.00012859   -0.01311649
     atom    3 type  2   force =     0.00017316   -0.00009996    0.00874931
     atom    4 type  2   force =    -0.00017316    0.00009996    0.00874942
     The ionic contribution  to forces
     atom    1 type  1   force =    -0.00003224    0.00001861    0.06477348
     atom    2 type  1   force =     0.00003224   -0.00001861    0.06477348
     atom    3 type  2   force =    -0.00002895    0.00001671   -0.06477348
     atom    4 type  2   force =     0.00002895   -0.00001671   -0.06477348
     The local contribution  to forces
     atom    1 type  1   force =    -0.00018173    0.00010493   -0.05730126
     atom    2 type  1   force =     0.00018173   -0.00010492   -0.05730130
     atom    3 type  2   force =    -0.00012540    0.00007239    0.06083306
     atom    4 type  2   force =     0.00012540   -0.00007239    0.06083299
     The core correction contribution to forces
     atom    1 type  1   force =    -0.00000569    0.00000329    0.00100500
     atom    2 type  1   force =     0.00000569   -0.00000329    0.00100501
     atom    3 type  2   force =    -0.00000323    0.00000187   -0.00016977
     atom    4 type  2   force =     0.00000323   -0.00000187   -0.00016978
     The Hubbard contrib.    to forces
     atom    1 type  1   force =     0.00000000    0.00000000    0.00000000
     atom    2 type  1   force =     0.00000000    0.00000000    0.00000000
     atom    3 type  2   force =     0.00000000    0.00000000    0.00000000
     atom    4 type  2   force =     0.00000000    0.00000000    0.00000000
     The SCF correction term to forces
     atom    1 type  1   force =     0.00000002   -0.00000006   -0.00000000
     atom    2 type  1   force =    -0.00000001    0.00000002    0.00000013
     atom    3 type  2   force =    -0.00000000   -0.00000001    0.00000004
     atom    4 type  2   force =    -0.00000001    0.00000002   -0.00000006

     Total force =     0.008035     Total SCF correction =     0.000000

     BFGS Geometry Optimization
     Energy error            =      0.0E+00
     Gradient error          =      4.6E-03

     number of scf cycles    =   1
     number of bfgs steps    =   0

     energy   new            =    -383.1269916156 Ry

     new trust radius        =       0.0046392902 bohr
     new conv_thr            =            1.0E-14 Ry


ATOMIC_POSITIONS (crystal)
Ga            0.6666673395        0.3333326512        0.0000000000    1   1   0
Ga            0.3333326609        0.6666673449        0.4995269036
N             0.6666687229        0.3333312774        0.3754731139
N             0.3333312767        0.6666687265        0.8754731073



     Writing output data file ./gan_wz/gan_wz.save/
     NEW-OLD atomic charge density approx. for the potential

     Check: negative core charge=   -0.000003

     total cpu time spent up to now is      109.8 secs

     Self-consistent Calculation

     iteration #  1     ecut=    60.00 Ry     beta= 0.70
     Davidson diagonalization with overlap
     ethr =  1.00E-06,  avg # of iterations =  4.0

     Threshold (ethr) on eigenvalues was too large:
     Diagonalizing with lowered threshold

     Davidson diagonalization with overlap
     ethr =  1.14E-08,  avg # of iterations =  4.4

     total cpu time spent up to now is      126.1 secs

     total energy              =    -383.12703972 Ry
     estimated scf accuracy    <       0.00000526 Ry

     iteration #  2     ecut=    60.00 Ry     beta= 0.70
     Davidson diagonalization with overlap
     ethr =  1.46E-08,  avg # of iterations =  2.4

     total cpu time spent up to now is      132.3 secs

     total energy              =    -383.12704060 Ry
     estimated scf accuracy    <       0.00000014 Ry

     iteration #  3     ecut=    60.00 Ry     beta= 0.70
     Davidson diagonalization with overlap
     ethr =  3.97E-10,  avg # of iterations =  4.3

     total cpu time spent up to now is      140.5 secs

     total energy              =    -383.12704065 Ry
     estimated scf accuracy    <       0.00000004 Ry

     iteration #  4     ecut=    60.00 Ry     beta= 0.70
     Davidson diagonalization with overlap
     ethr =  1.00E-10,  avg # of iterations =  3.3

     total cpu time spent up to now is      148.4 secs

     total energy              =    -383.12704066 Ry
     estimated scf accuracy    <          9.8E-09 Ry

     iteration #  5     ecut=    60.00 Ry     beta= 0.70
     Davidson diagonalization with overlap
     ethr =  2.71E-11,  avg # of iterations =  4.1

     total cpu time spent up to now is      154.9 secs

     total energy              =    -383.12704066 Ry
     estimated scf accuracy    <          1.3E-09 Ry

     iteration #  6     ecut=    60.00 Ry     beta= 0.70
     Davidson diagonalization with overlap
     ethr =  3.53E-12,  avg # of iterations =  2.6

     total cpu time spent up to now is      162.0 secs

     total energy              =    -383.12704066 Ry
     estimated scf accuracy    <          7.3E-11 Ry

     iteration #  7     ecut=    60.00 Ry     beta= 0.70
     Davidson diagonalization with overlap
     ethr =  2.03E-13,  avg # of iterations =  4.4

     total cpu time spent up to now is      168.9 secs

     total energy              =    -383.12704066 Ry
     estimated scf accuracy    <          1.7E-11 Ry

     iteration #  8     ecut=    60.00 Ry     beta= 0.70
     Davidson diagonalization with overlap
     ethr =  1.00E-13,  avg # of iterations =  2.0

     total cpu time spent up to now is      174.6 secs

     total energy              =    -383.12704066 Ry
     estimated scf accuracy    <          1.1E-12 Ry

     iteration #  9     ecut=    60.00 Ry     beta= 0.70
     Davidson diagonalization with overlap
     ethr =  1.00E-13,  avg # of iterations =  1.0

     total cpu time spent up to now is      179.4 secs

     total energy              =    -383.12704066 Ry
     estimated scf accuracy    <          2.9E-13 Ry

     iteration # 10     ecut=    60.00 Ry     beta= 0.70
     Davidson diagonalization with overlap
     ethr =  1.00E-13,  avg # of iterations =  1.0

     total cpu time spent up to now is      184.3 secs

     total energy              =    -383.12704066 Ry
     estimated scf accuracy    <          1.4E-13 Ry

     iteration # 11     ecut=    60.00 Ry     beta= 0.70
     Davidson diagonalization with overlap
     ethr =  1.00E-13,  avg # of iterations =  1.0

     total cpu time spent up to now is      189.1 secs

     End of self-consistent calculation

          k = 0.0714 0.1237 0.0768 (  2423 PWs)   bands (ev):

    -6.0537  -5.3125  -3.7177  -3.7004  -3.6687  -3.6479  -3.6298  -3.4745
    -3.4683  -3.4006  -3.3723  -2.1785   3.1592   7.7703   8.1756   8.5719
     9.4415   9.5185

     occupation numbers 
     1.0000   1.0000   1.0000   1.0000   1.0000   1.0000   1.0000   1.0000
     1.0000   1.0000   1.0000   1.0000   1.0000   1.0000   1.0000   1.0000
     1.0000   1.0000

          k = 0.0714 0.1237 0.2305 (  2436 PWs)   bands (ev):

    -5.7665  -5.4484  -3.6983  -3.6878  -3.6712  -3.6604  -3.5581  -3.4455
    -3.4284  -3.4026  -3.3813  -2.9398   4.8060   6.8235   8.1788   8.6752
     8.8975   9.1738

     occupation numbers 
     1.0000   1.0000   1.0000   1.0000   1.0000   1.0000   1.0000   1.0000
     1.0000   1.0000   1.0000   1.0000   1.0000   1.0000   1.0000   1.0000
     1.0000   1.0000

          k = 0.0714 0.1237-0.2305 (  2436 PWs)   bands (ev):

    -5.7665  -5.4484  -3.6983  -3.6878  -3.6712  -3.6604  -3.5581  -3.4455
    -3.4284  -3.4026  -3.3813  -2.9398   4.8060   6.8235   8.1788   8.6752
     8.8975   9.1738

     occupation numbers 
     1.0000   1.0000   1.0000   1.0000   1.0000   1.0000   1.0000   1.0000
     1.0000   1.0000   1.0000   1.0000   1.0000   1.0000   1.0000   1.0000
     1.0000   1.0000

          k = 0.0714 0.1237-0.0768 (  2423 PWs)   bands (ev):

    -6.0537  -5.3125  -3.7177  -3.7004  -3.6687  -3.6479  -3.6298  -3.4745
    -3.4683  -3.4006  -3.3723  -2.1785   3.1592   7.7703   8.1756   8.5719
     9.4415   9.5185

     occupation numbers 
     1.0000   1.0000   1.0000   1.0000   1.0000   1.0000   1.0000   1.0000
     1.0000   1.0000   1.0000   1.0000   1.0000   1.0000   1.0000   1.0000
     1.0000   1.0000

          k = 0.0714 0.2887 0.0768 (  2435 PWs)   bands (ev):

    -5.6926  -5.2318  -3.6761  -3.6640  -3.6061  -3.5695  -3.5046  -3.4723
    -3.4478  -3.3880  -3.3219  -1.8589   3.6868   5.8642   6.5803   7.6729
     8.9614   9.0490

     occupation numbers 
     1.0000   1.0000   1.0000   1.0000   1.0000   1.0000   1.0000   1.0000
     1.0000   1.0000   1.0000   1.0000   1.0000   1.0000   1.0000   1.0000
     1.0000   1.0000

          k = 0.0714 0.2887 0.2305 (  2430 PWs)   bands (ev):

    -5.4941  -5.3012  -3.6668  -3.6403  -3.6332  -3.5947  -3.5074  -3.4917
    -3.4230  -3.3944  -3.1042  -2.5467   4.6094   5.6276   6.9693   7.9652
     8.3675   8.6058

     occupation numbers 
     1.0000   1.0000   1.0000   1.0000   1.0000   1.0000   1.0000   1.0000
     1.0000   1.0000   1.0000   1.0000   1.0000   1.0000   1.0000   1.0000
     1.0000   1.0000

          k = 0.0714 0.2887-0.2305 (  2430 PWs)   bands (ev):

    -5.4942  -5.3011  -3.6702  -3.6371  -3.6310  -3.5960  -3.5063  -3.4942
[...]
    -3.4013  -3.3746  -2.3546  -1.5652   3.5134   4.5204   5.7258   6.3943
     7.8358   8.0417

     occupation numbers 
     1.0000   1.0000   1.0000   1.0000   1.0000   1.0000   1.0000   1.0000
     1.0000   1.0000   1.0000   1.0000   1.0000   1.0000   1.0000   1.0000
     1.0000   1.0000

          k = 0.3571-0.3712 0.2305 (  2418 PWs)   bands (ev):

    -5.2450  -5.1840  -3.6581  -3.6254  -3.6035  -3.5319  -3.4777  -3.4457
    -3.3960  -3.3871  -2.1751  -1.8465   3.3464   3.7959   6.4613   7.2560
     7.5165   8.3516

     occupation numbers 
     1.0000   1.0000   1.0000   1.0000   1.0000   1.0000   1.0000   1.0000
     1.0000   1.0000   1.0000   1.0000   1.0000   1.0000   1.0000   1.0000
     1.0000   1.0000

          k = 0.3571-0.3712-0.2305 (  2418 PWs)   bands (ev):

    -5.2450  -5.1840  -3.6581  -3.6254  -3.6035  -3.5319  -3.4777  -3.4456
    -3.3961  -3.3870  -2.1751  -1.8465   3.3464   3.7959   6.4613   7.2559
     7.5165   8.3516

     occupation numbers 
     1.0000   1.0000   1.0000   1.0000   1.0000   1.0000   1.0000   1.0000
     1.0000   1.0000   1.0000   1.0000   1.0000   1.0000   1.0000   1.0000
     1.0000   1.0000

          k = 0.3571-0.3712-0.0768 (  2415 PWs)   bands (ev):

    -5.3262  -5.1778  -3.6823  -3.6297  -3.5425  -3.5113  -3.4916  -3.4527
    -3.4013  -3.3746  -2.3546  -1.5652   3.5134   4.5205   5.7258   6.3942
     7.8358   8.0417

     occupation numbers 
     1.0000   1.0000   1.0000   1.0000   1.0000   1.0000   1.0000   1.0000
     1.0000   1.0000   1.0000   1.0000   1.0000   1.0000   1.0000   1.0000
     1.0000   1.0000

          k = 0.3571-0.2062 0.0768 (  2417 PWs)   bands (ev):

    -5.4588  -5.1921  -3.6725  -3.6439  -3.5718  -3.5180  -3.5047  -3.4610
    -3.4154  -3.3583  -2.9022  -1.6409   3.6702   4.9378   5.5944   7.3168
     8.3921   8.8476

     occupation numbers 
     1.0000   1.0000   1.0000   1.0000   1.0000   1.0000   1.0000   1.0000
     1.0000   1.0000   1.0000   1.0000   1.0000   1.0000   1.0000   1.0000
     1.0000   1.0000

          k = 0.3571-0.2062 0.2305 (  2424 PWs)   bands (ev):

    -5.3327  -5.2229  -3.6774  -3.6359  -3.6007  -3.5418  -3.4902  -3.4520
    -3.4035  -3.3808  -2.6608  -2.1571   3.7458   4.3839   6.8904   7.7223
     8.2764   8.3506

     occupation numbers 
     1.0000   1.0000   1.0000   1.0000   1.0000   1.0000   1.0000   1.0000
     1.0000   1.0000   1.0000   1.0000   1.0000   1.0000   1.0000   1.0000
     1.0000   1.0000

          k = 0.3571-0.2062-0.2305 (  2424 PWs)   bands (ev):

    -5.3327  -5.2229  -3.6774  -3.6359  -3.6007  -3.5418  -3.4901  -3.4521
    -3.4036  -3.3808  -2.6608  -2.1571   3.7457   4.3840   6.8905   7.7223
     8.2764   8.3506

     occupation numbers 
     1.0000   1.0000   1.0000   1.0000   1.0000   1.0000   1.0000   1.0000
     1.0000   1.0000   1.0000   1.0000   1.0000   1.0000   1.0000   1.0000
     1.0000   1.0000

          k = 0.3571-0.2062-0.0768 (  2417 PWs)   bands (ev):

    -5.4588  -5.1921  -3.6725  -3.6439  -3.5718  -3.5179  -3.5047  -3.4611
    -3.4154  -3.3583  -2.9022  -1.6409   3.6702   4.9378   5.5944   7.3168
     8.3921   8.8476

     occupation numbers 
     1.0000   1.0000   1.0000   1.0000   1.0000   1.0000   1.0000   1.0000
     1.0000   1.0000   1.0000   1.0000   1.0000   1.0000   1.0000   1.0000
     1.0000   1.0000

          k = 0.3571-0.0412 0.0768 (  2422 PWs)   bands (ev):

    -5.5467  -5.2069  -3.6699  -3.6481  -3.5802  -3.5569  -3.4992  -3.4688
    -3.4264  -3.3895  -3.1182  -1.7068   3.8768   5.5287   5.8718   7.0918
     8.5184   8.7580

     occupation numbers 
     1.0000   1.0000   1.0000   1.0000   1.0000   1.0000   1.0000   1.0000
     1.0000   1.0000   1.0000   1.0000   1.0000   1.0000   1.0000   1.0000
     1.0000   1.0000

          k = 0.3571-0.0412 0.2305 (  2430 PWs)   bands (ev):

    -5.3915  -5.2513  -3.6511  -3.6322  -3.6112  -3.5837  -3.5027  -3.4923
    -3.4057  -3.3976  -2.8721  -2.3223   4.3303   5.0736   6.9483   7.3372
     7.9639   8.4643

     occupation numbers 
     1.0000   1.0000   1.0000   1.0000   1.0000   1.0000   1.0000   1.0000
     1.0000   1.0000   1.0000   1.0000   1.0000   1.0000   1.0000   1.0000
     1.0000   1.0000

          k = 0.3571-0.0412-0.2305 (  2430 PWs)   bands (ev):

    -5.3915  -5.2513  -3.6510  -3.6323  -3.6112  -3.5836  -3.5027  -3.4923
    -3.4058  -3.3976  -2.8721  -2.3223   4.3303   5.0736   6.9484   7.3372
     7.9639   8.4643

     occupation numbers 
     1.0000   1.0000   1.0000   1.0000   1.0000   1.0000   1.0000   1.0000
     1.0000   1.0000   1.0000   1.0000   1.0000   1.0000   1.0000   1.0000
     1.0000   1.0000

          k = 0.3571-0.0412-0.0768 (  2422 PWs)   bands (ev):

    -5.5467  -5.2069  -3.6699  -3.6481  -3.5803  -3.5569  -3.4991  -3.4688
    -3.4264  -3.3895  -3.1182  -1.7068   3.8768   5.5287   5.8718   7.0918
     8.5184   8.7580

     occupation numbers 
     1.0000   1.0000   1.0000   1.0000   1.0000   1.0000   1.0000   1.0000
     1.0000   1.0000   1.0000   1.0000   1.0000   1.0000   1.0000   1.0000
     1.0000   1.0000

          k = 0.3571 0.1237 0.0768 (  2421 PWs)   bands (ev):

    -5.5146  -5.2013  -3.6666  -3.6533  -3.5770  -3.5275  -3.5080  -3.4699
    -3.4257  -3.3691  -3.0542  -1.6826   3.8171   5.1538   5.8273   7.2510
     8.5989   8.7752

     occupation numbers 
     1.0000   1.0000   1.0000   1.0000   1.0000   1.0000   1.0000   1.0000
     1.0000   1.0000   1.0000   1.0000   1.0000   1.0000   1.0000   1.0000
     1.0000   1.0000

          k = 0.3571 0.1237 0.2305 (  2424 PWs)   bands (ev):

    -5.3700  -5.2409  -3.6674  -3.6318  -3.6102  -3.5597  -3.4963  -3.4737
    -3.4086  -3.3883  -2.8055  -2.2666   4.0834   4.7830   6.8490   7.6394
     8.1562   8.4423

     occupation numbers 
     1.0000   1.0000   1.0000   1.0000   1.0000   1.0000   1.0000   1.0000
     1.0000   1.0000   1.0000   1.0000   1.0000   1.0000   1.0000   1.0000
     1.0000   1.0000

          k = 0.3571 0.1237-0.2305 (  2424 PWs)   bands (ev):

    -5.3700  -5.2409  -3.6674  -3.6317  -3.6102  -3.5597  -3.4964  -3.4737
    -3.4085  -3.3883  -2.8055  -2.2666   4.0834   4.7830   6.8489   7.6395
     8.1561   8.4424

     occupation numbers 
     1.0000   1.0000   1.0000   1.0000   1.0000   1.0000   1.0000   1.0000
     1.0000   1.0000   1.0000   1.0000   1.0000   1.0000   1.0000   1.0000
     1.0000   1.0000

          k = 0.3571 0.1237-0.0768 (  2421 PWs)   bands (ev):

    -5.5146  -5.2013  -3.6666  -3.6533  -3.5769  -3.5275  -3.5081  -3.4698
    -3.4257  -3.3691  -3.0542  -1.6826   3.8172   5.1538   5.8273   7.2510
     8.5989   8.7752

     occupation numbers 
     1.0000   1.0000   1.0000   1.0000   1.0000   1.0000   1.0000   1.0000
     1.0000   1.0000   1.0000   1.0000   1.0000   1.0000   1.0000   1.0000
     1.0000   1.0000

          k =-0.5000-0.2062 0.0768 (  2409 PWs)   bands (ev):

    -5.3322  -5.1755  -3.6745  -3.6446  -3.5451  -3.5298  -3.4773  -3.4394
    -3.3892  -3.3577  -2.2723  -1.6669   3.2690   4.3503   5.7824   6.8464
     7.7617   8.4614

     occupation numbers 
     1.0000   1.0000   1.0000   1.0000   1.0000   1.0000   1.0000   1.0000
     1.0000   1.0000   1.0000   1.0000   1.0000   1.0000   1.0000   1.0000
     1.0000   1.0000

          k =-0.5000-0.2062 0.2305 (  2410 PWs)   bands (ev):

    -5.2494  -5.1847  -3.6792  -3.6373  -3.5950  -3.5207  -3.4745  -3.4243
    -3.3850  -3.3756  -2.1335  -1.8784   3.0898   3.5514   6.9570   7.4977
     7.8092   8.2875

     occupation numbers 
     1.0000   1.0000   1.0000   1.0000   1.0000   1.0000   1.0000   1.0000
     1.0000   1.0000   1.0000   1.0000   1.0000   1.0000   1.0000   1.0000
     1.0000   1.0000

          k =-0.5000-0.2062-0.2305 (  2410 PWs)   bands (ev):

    -5.2494  -5.1847  -3.6792  -3.6373  -3.5950  -3.5207  -3.4745  -3.4243
    -3.3851  -3.3756  -2.1335  -1.8784   3.0898   3.5515   6.9570   7.4977
     7.8093   8.2875

     occupation numbers 
     1.0000   1.0000   1.0000   1.0000   1.0000   1.0000   1.0000   1.0000
     1.0000   1.0000   1.0000   1.0000   1.0000   1.0000   1.0000   1.0000
     1.0000   1.0000

          k =-0.5000-0.2062-0.0768 (  2409 PWs)   bands (ev):

    -5.3322  -5.1755  -3.6745  -3.6446  -3.5451  -3.5298  -3.4773  -3.4394
    -3.3893  -3.3577  -2.2723  -1.6669   3.2690   4.3503   5.7824   6.8464
     7.7617   8.4614

     occupation numbers 
     1.0000   1.0000   1.0000   1.0000   1.0000   1.0000   1.0000   1.0000
     1.0000   1.0000   1.0000   1.0000   1.0000   1.0000   1.0000   1.0000
     1.0000   1.0000

          k =-0.5000-0.0412 0.0768 (  2415 PWs)   bands (ev):

    -5.3210  -5.1800  -3.6937  -3.6002  -3.5398  -3.5180  -3.4897  -3.4700
    -3.4065  -3.3911  -2.4045  -1.5001   3.8171   4.5699   5.7212   6.0400
     7.5885   7.9850

     occupation numbers 
     1.0000   1.0000   1.0000   1.0000   1.0000   1.0000   1.0000   1.0000
     1.0000   1.0000   1.0000   1.0000   1.0000   1.0000   1.0000   1.0000
     1.0000   1.0000

          k =-0.5000-0.0412 0.2305 (  2420 PWs)   bands (ev):

    -5.2412  -5.1835  -3.6380  -3.6253  -3.5917  -3.5453  -3.4859  -3.4710
    -3.4044  -3.3909  -2.2012  -1.8279   3.6211   4.0146   6.0528   6.8329
     7.4876   8.3875

     occupation numbers 
     1.0000   1.0000   1.0000   1.0000   1.0000   1.0000   1.0000   1.0000
     1.0000   1.0000   1.0000   1.0000   1.0000   1.0000   1.0000   1.0000
     1.0000   1.0000

          k =-0.5000-0.0412-0.2305 (  2420 PWs)   bands (ev):

    -5.2412  -5.1835  -3.6380  -3.6253  -3.5918  -3.5452  -3.4859  -3.4710
    -3.4045  -3.3908  -2.2012  -1.8279   3.6210   4.0146   6.0528   6.8329
     7.4876   8.3875

     occupation numbers 
     1.0000   1.0000   1.0000   1.0000   1.0000   1.0000   1.0000   1.0000
     1.0000   1.0000   1.0000   1.0000   1.0000   1.0000   1.0000   1.0000
     1.0000   1.0000

          k =-0.5000-0.0412-0.0768 (  2415 PWs)   bands (ev):

    -5.3210  -5.1800  -3.6937  -3.6002  -3.5399  -3.5179  -3.4896  -3.4701
    -3.4065  -3.3911  -2.4045  -1.5001   3.8171   4.5699   5.7213   6.0399
     7.5885   7.9850

     occupation numbers 
     1.0000   1.0000   1.0000   1.0000   1.0000   1.0000   1.0000   1.0000
     1.0000   1.0000   1.0000   1.0000   1.0000   1.0000   1.0000   1.0000
     1.0000   1.0000

          k =-0.5000 0.1237 0.0768 (  2415 PWs)   bands (ev):

    -5.3262  -5.1778  -3.6823  -3.6297  -3.5425  -3.5113  -3.4916  -3.4527
    -3.4013  -3.3746  -2.3546  -1.5652   3.5134   4.5205   5.7258   6.3942
     7.8358   8.0417

     occupation numbers 
     1.0000   1.0000   1.0000   1.0000   1.0000   1.0000   1.0000   1.0000
     1.0000   1.0000   1.0000   1.0000   1.0000   1.0000   1.0000   1.0000
     1.0000   1.0000

          k =-0.5000 0.1237 0.2305 (  2418 PWs)   bands (ev):

    -5.2450  -5.1840  -3.6581  -3.6254  -3.6035  -3.5319  -3.4777  -3.4456
    -3.3961  -3.3870  -2.1751  -1.8465   3.3464   3.7959   6.4613   7.2559
     7.5165   8.3516

     occupation numbers 
     1.0000   1.0000   1.0000   1.0000   1.0000   1.0000   1.0000   1.0000
     1.0000   1.0000   1.0000   1.0000   1.0000   1.0000   1.0000   1.0000
     1.0000   1.0000

          k =-0.5000 0.1237-0.2305 (  2418 PWs)   bands (ev):

    -5.2450  -5.1840  -3.6581  -3.6254  -3.6035  -3.5319  -3.4777  -3.4457
    -3.3960  -3.3871  -2.1751  -1.8465   3.3464   3.7959   6.4613   7.2560
     7.5165   8.3516

     occupation numbers 
     1.0000   1.0000   1.0000   1.0000   1.0000   1.0000   1.0000   1.0000
     1.0000   1.0000   1.0000   1.0000   1.0000   1.0000   1.0000   1.0000
     1.0000   1.0000

          k =-0.5000 0.1237-0.0768 (  2415 PWs)   bands (ev):

    -5.3262  -5.1778  -3.6823  -3.6297  -3.5424  -3.5113  -3.4916  -3.4526
    -3.4013  -3.3746  -2.3546  -1.5652   3.5134   4.5204   5.7258   6.3943
     7.8358   8.0417

     occupation numbers 
     1.0000   1.0000   1.0000   1.0000   1.0000   1.0000   1.0000   1.0000
     1.0000   1.0000   1.0000   1.0000   1.0000   1.0000   1.0000   1.0000
     1.0000   1.0000

          k =-0.5000-0.8660 0.0768 (  2402 PWs)   bands (ev):

    -5.3348  -5.1746  -3.6775  -3.6414  -3.5444  -3.5407  -3.4722  -3.4358
    -3.3823  -3.3510  -2.2230  -1.7249   3.1831   4.2685   5.8121   7.0485
     7.7217   8.6576

     occupation numbers 
     1.0000   1.0000   1.0000   1.0000   1.0000   1.0000   1.0000   1.0000
     1.0000   1.0000   1.0000   1.0000   1.0000   1.0000   1.0000   1.0000
     1.0000   1.0000

          k =-0.5000-0.8660 0.2305 (  2412 PWs)   bands (ev):

    -5.2514  -5.1850  -3.6873  -3.6433  -3.5888  -3.5163  -3.4749  -3.4186
    -3.3790  -3.3685  -2.1095  -1.8980   2.9932   3.4521   7.2053   7.4722
     8.1318   8.1687

     occupation numbers 
     1.0000   1.0000   1.0000   1.0000   1.0000   1.0000   1.0000   1.0000
     1.0000   1.0000   1.0000   1.0000   1.0000   1.0000   1.0000   1.0000
     1.0000   1.0000

     highest occupied level (ev):     9.6414

!    total energy              =    -383.12707690 Ry
     estimated scf accuracy    <          3.5E-18 Ry

     The total energy is the sum of the following terms:
     one-electron contribution =    -179.18739666 Ry
     hartree contribution      =     128.09588505 Ry
     xc contribution           =     -98.86417205 Ry
     ewald contribution        =    -233.17139324 Ry

     convergence has been achieved in  14 iterations

     Forces acting on atoms (cartesian axes, Ry/au):

     atom    1 type  1   force =    -0.00000217    0.00000126    0.00002430
     atom    2 type  1   force =     0.00000216   -0.00000125   -0.00000542
     atom    3 type  2   force =     0.00000209   -0.00000121   -0.00004058
     atom    4 type  2   force =    -0.00000208    0.00000120    0.00002169
     The non-local contrib.  to forces
     atom    1 type  1   force =     0.00018327   -0.00010581   -0.00393986
     atom    2 type  1   force =    -0.00018332    0.00010584   -0.00401785
     atom    3 type  2   force =     0.00014346   -0.00008283    0.01130147
     atom    4 type  2   force =    -0.00014346    0.00008283    0.01138498
     The ionic contribution  to forces
     atom    1 type  1   force =    -0.00031072    0.00017939    0.13428896
     atom    2 type  1   force =     0.00031051   -0.00017927    0.13165552
     atom    3 type  2   force =    -0.00005720    0.00003305   -0.13366221
     atom    4 type  2   force =     0.00005741   -0.00003317   -0.13228227
     The local contribution  to forces
     atom    1 type  1   force =     0.00012919   -0.00007458   -0.13068078
     atom    2 type  1   force =    -0.00012894    0.00007444   -0.12800406
     atom    3 type  2   force =    -0.00008151    0.00004704    0.12249902
     atom    4 type  2   force =     0.00008132   -0.00004693    0.12109976
     The core correction contribution to forces
     atom    1 type  1   force =    -0.00000391    0.00000225    0.00035633
     atom    2 type  1   force =     0.00000391   -0.00000226    0.00036134
     atom    3 type  2   force =    -0.00000265    0.00000153   -0.00017851
     atom    4 type  2   force =     0.00000265   -0.00000153   -0.00018043
     The Hubbard contrib.    to forces
     atom    1 type  1   force =     0.00000000    0.00000000    0.00000000
     atom    2 type  1   force =     0.00000000    0.00000000    0.00000000
     atom    3 type  2   force =     0.00000000    0.00000000    0.00000000
     atom    4 type  2   force =     0.00000000    0.00000000    0.00000000
     The SCF correction term to forces
     atom    1 type  1   force =    -0.00000000    0.00000000    0.00000000
     atom    2 type  1   force =     0.00000000   -0.00000000   -0.00000000
     atom    3 type  2   force =     0.00000000   -0.00000000   -0.00000000
     atom    4 type  2   force =    -0.00000000    0.00000000    0.00000000

     Total force =     0.000047     Total SCF correction =     0.000000
     Energy error            =      5.0E-08
     Gradient error          =      4.1E-05

     bfgs converged in   8 scf cycles and   7 bfgs steps
     (criteria: energy <  1.0E-05 Ry, force <  1.0E-04 Ry/Bohr)

     End of BFGS Geometry Optimization

     Final energy   =    -383.1270769024 Ry

     File ./gan_wz/gan_wz.bfgs deleted, as requested
Begin final coordinates

ATOMIC_POSITIONS (crystal)
Ga            0.6666619112        0.3333380861        0.0000000000    1   1   0
Ga            0.3333380928        0.6666619098        0.5000041533
N             0.6666761483        0.3333238540        0.3769034997
N             0.3333238477        0.6666761500        0.8768910442
End final coordinates



     Writing output data file ./gan_wz/gan_wz.save/

     init_run     :      3.02s CPU      3.25s WALL (       1 calls)
     electrons    :    735.23s CPU    760.13s WALL (       8 calls)
     update_pot   :      0.55s CPU      0.56s WALL (       7 calls)
     forces       :      7.55s CPU      8.12s WALL (       8 calls)

     Called by init_run:
     wfcinit      :      2.67s CPU      2.81s WALL (       1 calls)
     wfcinit:atom :      0.02s CPU      0.03s WALL (      98 calls)
     wfcinit:wfcr :      2.48s CPU      2.56s WALL (      98 calls)
     potinit      :      0.05s CPU      0.05s WALL (       1 calls)
     hinit0       :      0.27s CPU      0.26s WALL (       1 calls)

     Called by electrons:
     c_bands      :    635.70s CPU    647.65s WALL (     126 calls)
     sum_band     :     91.31s CPU     98.81s WALL (     126 calls)
     v_of_rho     :      2.53s CPU      2.58s WALL (     127 calls)
     v_h          :      0.12s CPU      0.16s WALL (     127 calls)
     v_xc         :      2.58s CPU      2.57s WALL (     135 calls)
     newd         :      5.69s CPU     11.30s WALL (     127 calls)
     mix_rho      :      0.31s CPU      0.45s WALL (     126 calls)

     Called by c_bands:
     init_us_2    :      8.73s CPU      9.89s WALL (   25578 calls)
     cegterg      :    603.36s CPU    613.60s WALL (   12348 calls)

     Called by sum_band:
     sum_band:wei :      0.00s CPU      0.00s WALL (     126 calls)
     sum_band:loo :     85.08s CPU     86.19s WALL (     126 calls)
     sum_band:buf :      0.45s CPU      0.62s WALL (   12348 calls)
     sum_band:ini :      4.17s CPU      4.72s WALL (   12348 calls)
     sum_band:cal :     22.47s CPU     22.43s WALL (   12348 calls)
     sum_band:bec :      0.09s CPU      0.13s WALL (   12348 calls)
     addusdens    :      5.84s CPU     12.36s WALL (     126 calls)
     addusd:skk   :      0.02s CPU      0.03s WALL (     252 calls)
     addusd:dgemm :      1.91s CPU      7.72s WALL (     252 calls)
     addusd:qvan2 :      3.38s CPU      3.51s WALL (     252 calls)

     Called by *egterg:
     cdiaghg      :      7.55s CPU      7.47s WALL (   39329 calls)
     cegterg:over :     42.55s CPU     43.62s WALL (   28353 calls)
     cegterg:upda :     25.23s CPU     25.51s WALL (   28353 calls)
     cegterg:last :     52.00s CPU     52.95s WALL (   21796 calls)
     h_psi        :    397.78s CPU    404.05s WALL (   40799 calls)
     s_psi        :     59.52s CPU     60.27s WALL (   40799 calls)
     g_psi        :      2.75s CPU      3.05s WALL (   28353 calls)

     Called by h_psi:
     h_psi:calbec :     54.92s CPU     56.34s WALL (   40799 calls)
     vloc_psi     :    282.19s CPU    286.20s WALL (   40799 calls)
     add_vuspsi   :     59.64s CPU     60.41s WALL (   40799 calls)

     General routines
     calbec       :     83.06s CPU     84.58s WALL (   56283 calls)
     fft          :      1.84s CPU      1.67s WALL (    1737 calls)
     ffts         :      0.06s CPU      0.11s WALL (     253 calls)
     fftw         :    309.06s CPU    311.98s WALL ( 1326236 calls)
     interpolate  :      0.11s CPU      0.16s WALL (     127 calls)

     Parallel routines

     PWSCF        :  12m26.81s CPU  12m52.95s WALL


   This run was terminated on:  19:12:17   9Nov2022            

=------------------------------------------------------------------------------=
   JOB DONE.
=------------------------------------------------------------------------------=
