
     Program PWSCF v.6.7MaX starts on  9Nov2022 at 19:17:38 

     This program is part of the open-source Quantum ESPRESSO suite
     for quantum simulation of materials; please cite
         "P. Giannozzi et al., J. Phys.:Condens. Matter 21 395502 (2009);
         "P. Giannozzi et al., J. Phys.:Condens. Matter 29 465901 (2017);
          URL http://www.quantum-espresso.org", 
     in publications or presentations arising from this work. More details at
     http://www.quantum-espresso.org/quote

     Parallel version (MPI), running on     1 processors

     MPI processes distributed on     1 nodes
     Waiting for input...
     Reading input from standard input

     Current dimensions of program PWSCF are:
     Max number of different atomic species (ntypx) = 10
     Max number of k-points (npk) =  40000
     Max angular momentum in pseudopotentials (lmaxx) =  3
     file Ga.pbe-dnl-rrkjus_psl.1.0.0.UPF: wavefunction(s)  3D renormalized

     Subspace diagonalization in iterative solution of the eigenvalue problem:
     a serial algorithm will be used


     G-vector sticks info
     --------------------
     sticks:   dense  smooth     PW     G-vecs:    dense   smooth      PW
     Sum         913     595    199                35591    19411    3609



     bravais-lattice index     =            4
     lattice parameter (alat)  =       6.0282  a.u.
     unit-cell volume          =     308.5974 (a.u.)^3
     number of atoms/cell      =            4
     number of atomic types    =            2
     number of electrons       =        36.00
     number of Kohn-Sham states=           18
     kinetic-energy cutoff     =      60.0000  Ry
     charge density cutoff     =     360.0000  Ry
     scf convergence threshold =      1.0E-14
     mixing beta               =       0.7000
     number of iterations used =            8  plain     mixing
     energy convergence thresh.=      1.0E-05
     force convergence thresh. =      1.0E-04
     press convergence thresh. =      1.0E-01
     Exchange-correlation= PBE
                           (   1   4   3   4   0   0   0)
     nstep                     =          200


     celldm(1)=   6.028226  celldm(2)=   0.000000  celldm(3)=   1.626646
     celldm(4)=   0.000000  celldm(5)=   0.000000  celldm(6)=   0.000000

     crystal axes: (cart. coord. in units of alat)
               a(1) = (   1.000000   0.000000   0.000000 )  
               a(2) = (  -0.500000   0.866025   0.000000 )  
               a(3) = (   0.000000   0.000000   1.626646 )  

     reciprocal axes: (cart. coord. in units 2 pi/alat)
               b(1) = (  1.000000  0.577350 -0.000000 )  
               b(2) = (  0.000000  1.154701  0.000000 )  
               b(3) = (  0.000000 -0.000000  0.614762 )  


     PseudoPot. # 1 for Ga read from file:
     ./PP/Ga.pbe-dnl-rrkjus_psl.1.0.0.UPF
     MD5 check sum: 270b2196c8436448097a4541768b2cf5
     Pseudo is Ultrasoft + core correction, Zval = 13.0
     Generated using &quot;atomic&quot; code by A. Dal Corso  v.6.3
     Using radial grid of 1205 points,  6 beta functions with: 
                l(1) =   0
                l(2) =   0
                l(3) =   1
                l(4) =   1
                l(5) =   2
                l(6) =   2
     Q(r) pseudized with 0 coefficients 


     PseudoPot. # 2 for N  read from file:
     ./PP/N.pbe-n-rrkjus_psl.1.0.0.UPF
     MD5 check sum: ada94e3ed05223de5319d0572dc76806
     Pseudo is Ultrasoft + core correction, Zval =  5.0
     Generated using &quot;atomic&quot; code by A. Dal Corso  v.6.3MaX
     Using radial grid of 1085 points,  4 beta functions with: 
                l(1) =   0
                l(2) =   0
                l(3) =   1
                l(4) =   1
     Q(r) pseudized with 0 coefficients 


     atomic species   valence    mass     pseudopotential
        Ga            13.00    69.72300     Ga( 1.00)
        N              5.00    14.00674     N ( 1.00)

     No symmetry found


                                    s                        frac. trans.

      isym =  1     identity                                     

 cryst.   s( 1) = (     1          0          0      )
                  (     0          1          0      )
                  (     0          0          1      )

 cart.    s( 1) = (  1.0000000  0.0000000  0.0000000 )
                  (  0.0000000  1.0000000  0.0000000 )
                  (  0.0000000  0.0000000  1.0000000 )


     point group C_1 (1)    
     there are  1 classes
     the character table:

       E    
A      1.00

     the symmetry operations in each class and the name of the first element:

     E        1
          identity                                               

   Cartesian axes

     site n.     atom                  positions (alat units)
         1           Ga  tau(   1) = (   0.4999929   0.2886793   0.0000000  )
         2           Ga  tau(   2) = (   0.0000071   0.5773461   0.8133296  )
         3           N   tau(   3) = (   0.5000142   0.2886669   0.6130885  )
         4           N   tau(   4) = (  -0.0000142   0.5773585   1.4263911  )

   Crystallographic axes

     site n.     atom                  positions (cryst. coord.)
         1           Ga  tau(   1) = (  0.6666619  0.3333381  0.0000000  )
         2           Ga  tau(   2) = (  0.3333381  0.6666619  0.5000042  )
         3           N   tau(   3) = (  0.6666761  0.3333239  0.3769035  )
         4           N   tau(   4) = (  0.3333238  0.6666761  0.8768910  )

     number of k points=    98
                       cart. coord. in units 2pi/alat
        k(    1) = (   0.0714286   0.1237179   0.0768452), wk =   0.0204082
        k(    2) = (   0.0714286   0.1237179   0.2305357), wk =   0.0204082
        k(    3) = (   0.0714286   0.1237179  -0.2305357), wk =   0.0204082
        k(    4) = (   0.0714286   0.1237179  -0.0768452), wk =   0.0204082
        k(    5) = (   0.0714286   0.2886751   0.0768452), wk =   0.0204082
        k(    6) = (   0.0714286   0.2886751   0.2305357), wk =   0.0204082
        k(    7) = (   0.0714286   0.2886751  -0.2305357), wk =   0.0204082
        k(    8) = (   0.0714286   0.2886751  -0.0768452), wk =   0.0204082
        k(    9) = (   0.0714286   0.4536324   0.0768452), wk =   0.0204082
        k(   10) = (   0.0714286   0.4536324   0.2305357), wk =   0.0204082
        k(   11) = (   0.0714286   0.4536324  -0.2305357), wk =   0.0204082
        k(   12) = (   0.0714286   0.4536324  -0.0768452), wk =   0.0204082
        k(   13) = (   0.0714286  -0.5361110   0.0768452), wk =   0.0204082
        k(   14) = (   0.0714286  -0.5361110   0.2305357), wk =   0.0204082
        k(   15) = (   0.0714286  -0.5361110  -0.2305357), wk =   0.0204082
        k(   16) = (   0.0714286  -0.5361110  -0.0768452), wk =   0.0204082
        k(   17) = (   0.0714286  -0.3711537   0.0768452), wk =   0.0204082
        k(   18) = (   0.0714286  -0.3711537   0.2305357), wk =   0.0204082
        k(   19) = (   0.0714286  -0.3711537  -0.2305357), wk =   0.0204082
        k(   20) = (   0.0714286  -0.3711537  -0.0768452), wk =   0.0204082
        k(   21) = (   0.0714286  -0.2061965   0.0768452), wk =   0.0204082
        k(   22) = (   0.0714286  -0.2061965   0.2305357), wk =   0.0204082
        k(   23) = (   0.0714286  -0.2061965  -0.2305357), wk =   0.0204082
        k(   24) = (   0.0714286  -0.2061965  -0.0768452), wk =   0.0204082
        k(   25) = (   0.0714286  -0.0412393   0.0768452), wk =   0.0204082
        k(   26) = (   0.0714286  -0.0412393   0.2305357), wk =   0.0204082
        k(   27) = (   0.0714286  -0.0412393  -0.2305357), wk =   0.0204082
        k(   28) = (   0.0714286  -0.0412393  -0.0768452), wk =   0.0204082
        k(   29) = (   0.2142857   0.2061965   0.0768452), wk =   0.0204082
        k(   30) = (   0.2142857   0.2061965   0.2305357), wk =   0.0204082
        k(   31) = (   0.2142857   0.2061965  -0.2305357), wk =   0.0204082
        k(   32) = (   0.2142857   0.2061965  -0.0768452), wk =   0.0204082
        k(   33) = (   0.2142857   0.3711537   0.0768452), wk =   0.0204082
        k(   34) = (   0.2142857   0.3711537   0.2305357), wk =   0.0204082
        k(   35) = (   0.2142857   0.3711537  -0.2305357), wk =   0.0204082
        k(   36) = (   0.2142857   0.3711537  -0.0768452), wk =   0.0204082
        k(   37) = (   0.2142857   0.5361110   0.0768452), wk =   0.0204082
        k(   38) = (   0.2142857   0.5361110   0.2305357), wk =   0.0204082
        k(   39) = (   0.2142857   0.5361110  -0.2305357), wk =   0.0204082
        k(   40) = (   0.2142857   0.5361110  -0.0768452), wk =   0.0204082
        k(   41) = (   0.2142857  -0.4536324   0.0768452), wk =   0.0204082
        k(   42) = (   0.2142857  -0.4536324   0.2305357), wk =   0.0204082
        k(   43) = (   0.2142857  -0.4536324  -0.2305357), wk =   0.0204082
        k(   44) = (   0.2142857  -0.4536324  -0.0768452), wk =   0.0204082
        k(   45) = (   0.2142857  -0.2886751   0.0768452), wk =   0.0204082
        k(   46) = (   0.2142857  -0.2886751   0.2305357), wk =   0.0204082
        k(   47) = (   0.2142857  -0.2886751  -0.2305357), wk =   0.0204082
        k(   48) = (   0.2142857  -0.2886751  -0.0768452), wk =   0.0204082
        k(   49) = (   0.2142857  -0.1237179   0.0768452), wk =   0.0204082
        k(   50) = (   0.2142857  -0.1237179   0.2305357), wk =   0.0204082
        k(   51) = (   0.2142857  -0.1237179  -0.2305357), wk =   0.0204082
        k(   52) = (   0.2142857  -0.1237179  -0.0768452), wk =   0.0204082
        k(   53) = (   0.2142857   0.0412393   0.0768452), wk =   0.0204082
        k(   54) = (   0.2142857   0.0412393   0.2305357), wk =   0.0204082
        k(   55) = (   0.2142857   0.0412393  -0.2305357), wk =   0.0204082
        k(   56) = (   0.2142857   0.0412393  -0.0768452), wk =   0.0204082
        k(   57) = (   0.3571429   0.2886751   0.0768452), wk =   0.0204082
        k(   58) = (   0.3571429   0.2886751   0.2305357), wk =   0.0204082
        k(   59) = (   0.3571429   0.2886751  -0.2305357), wk =   0.0204082
        k(   60) = (   0.3571429   0.2886751  -0.0768452), wk =   0.0204082
        k(   61) = (   0.3571429   0.4536324   0.0768452), wk =   0.0204082
        k(   62) = (   0.3571429   0.4536324   0.2305357), wk =   0.0204082
        k(   63) = (   0.3571429   0.4536324  -0.2305357), wk =   0.0204082
        k(   64) = (   0.3571429   0.4536324  -0.0768452), wk =   0.0204082
        k(   65) = (   0.3571429   0.6185896   0.0768452), wk =   0.0204082
        k(   66) = (   0.3571429   0.6185896   0.2305357), wk =   0.0204082
        k(   67) = (   0.3571429   0.6185896  -0.2305357), wk =   0.0204082
        k(   68) = (   0.3571429   0.6185896  -0.0768452), wk =   0.0204082
        k(   69) = (   0.3571429  -0.3711537   0.0768452), wk =   0.0204082
        k(   70) = (   0.3571429  -0.3711537   0.2305357), wk =   0.0204082
        k(   71) = (   0.3571429  -0.3711537  -0.2305357), wk =   0.0204082
        k(   72) = (   0.3571429  -0.3711537  -0.0768452), wk =   0.0204082
        k(   73) = (   0.3571429  -0.2061965   0.0768452), wk =   0.0204082
        k(   74) = (   0.3571429  -0.2061965   0.2305357), wk =   0.0204082
        k(   75) = (   0.3571429  -0.2061965  -0.2305357), wk =   0.0204082
        k(   76) = (   0.3571429  -0.2061965  -0.0768452), wk =   0.0204082
        k(   77) = (   0.3571429  -0.0412393   0.0768452), wk =   0.0204082
        k(   78) = (   0.3571429  -0.0412393   0.2305357), wk =   0.0204082
        k(   79) = (   0.3571429  -0.0412393  -0.2305357), wk =   0.0204082
        k(   80) = (   0.3571429  -0.0412393  -0.0768452), wk =   0.0204082
        k(   81) = (   0.3571429   0.1237179   0.0768452), wk =   0.0204082
        k(   82) = (   0.3571429   0.1237179   0.2305357), wk =   0.0204082
        k(   83) = (   0.3571429   0.1237179  -0.2305357), wk =   0.0204082
        k(   84) = (   0.3571429   0.1237179  -0.0768452), wk =   0.0204082
        k(   85) = (  -0.5000000  -0.2061965   0.0768452), wk =   0.0204082
        k(   86) = (  -0.5000000  -0.2061965   0.2305357), wk =   0.0204082
        k(   87) = (  -0.5000000  -0.2061965  -0.2305357), wk =   0.0204082
        k(   88) = (  -0.5000000  -0.2061965  -0.0768452), wk =   0.0204082
        k(   89) = (  -0.5000000  -0.0412393   0.0768452), wk =   0.0204082
        k(   90) = (  -0.5000000  -0.0412393   0.2305357), wk =   0.0204082
        k(   91) = (  -0.5000000  -0.0412393  -0.2305357), wk =   0.0204082
        k(   92) = (  -0.5000000  -0.0412393  -0.0768452), wk =   0.0204082
        k(   93) = (  -0.5000000   0.1237179   0.0768452), wk =   0.0204082
        k(   94) = (  -0.5000000   0.1237179   0.2305357), wk =   0.0204082
        k(   95) = (  -0.5000000   0.1237179  -0.2305357), wk =   0.0204082
        k(   96) = (  -0.5000000   0.1237179  -0.0768452), wk =   0.0204082
        k(   97) = (  -0.5000000  -0.8660254   0.0768452), wk =   0.0204082
        k(   98) = (  -0.5000000  -0.8660254   0.2305357), wk =   0.0204082

                       cryst. coord.
        k(    1) = (   0.0714286   0.0714286   0.1250000), wk =   0.0204082
        k(    2) = (   0.0714286   0.0714286   0.3750000), wk =   0.0204082
        k(    3) = (   0.0714286   0.0714286  -0.3750000), wk =   0.0204082
        k(    4) = (   0.0714286   0.0714286  -0.1250000), wk =   0.0204082
        k(    5) = (   0.0714286   0.2142857   0.1250000), wk =   0.0204082
        k(    6) = (   0.0714286   0.2142857   0.3750000), wk =   0.0204082
        k(    7) = (   0.0714286   0.2142857  -0.3750000), wk =   0.0204082
        k(    8) = (   0.0714286   0.2142857  -0.1250000), wk =   0.0204082
        k(    9) = (   0.0714286   0.3571429   0.1250000), wk =   0.0204082
        k(   10) = (   0.0714286   0.3571429   0.3750000), wk =   0.0204082
        k(   11) = (   0.0714286   0.3571429  -0.3750000), wk =   0.0204082
        k(   12) = (   0.0714286   0.3571429  -0.1250000), wk =   0.0204082
        k(   13) = (   0.0714286  -0.5000000   0.1250000), wk =   0.0204082
        k(   14) = (   0.0714286  -0.5000000   0.3750000), wk =   0.0204082
        k(   15) = (   0.0714286  -0.5000000  -0.3750000), wk =   0.0204082
        k(   16) = (   0.0714286  -0.5000000  -0.1250000), wk =   0.0204082
        k(   17) = (   0.0714286  -0.3571429   0.1250000), wk =   0.0204082
        k(   18) = (   0.0714286  -0.3571429   0.3750000), wk =   0.0204082
        k(   19) = (   0.0714286  -0.3571429  -0.3750000), wk =   0.0204082
        k(   20) = (   0.0714286  -0.3571429  -0.1250000), wk =   0.0204082
        k(   21) = (   0.0714286  -0.2142857   0.1250000), wk =   0.0204082
        k(   22) = (   0.0714286  -0.2142857   0.3750000), wk =   0.0204082
        k(   23) = (   0.0714286  -0.2142857  -0.3750000), wk =   0.0204082
        k(   24) = (   0.0714286  -0.2142857  -0.1250000), wk =   0.0204082
        k(   25) = (   0.0714286  -0.0714286   0.1250000), wk =   0.0204082
        k(   26) = (   0.0714286  -0.0714286   0.3750000), wk =   0.0204082
        k(   27) = (   0.0714286  -0.0714286  -0.3750000), wk =   0.0204082
        k(   28) = (   0.0714286  -0.0714286  -0.1250000), wk =   0.0204082
        k(   29) = (   0.2142857   0.0714286   0.1250000), wk =   0.0204082
        k(   30) = (   0.2142857   0.0714286   0.3750000), wk =   0.0204082
        k(   31) = (   0.2142857   0.0714286  -0.3750000), wk =   0.0204082
        k(   32) = (   0.2142857   0.0714286  -0.1250000), wk =   0.0204082
        k(   33) = (   0.2142857   0.2142857   0.1250000), wk =   0.0204082
        k(   34) = (   0.2142857   0.2142857   0.3750000), wk =   0.0204082
        k(   35) = (   0.2142857   0.2142857  -0.3750000), wk =   0.0204082
        k(   36) = (   0.2142857   0.2142857  -0.1250000), wk =   0.0204082
        k(   37) = (   0.2142857   0.3571429   0.1250000), wk =   0.0204082
        k(   38) = (   0.2142857   0.3571429   0.3750000), wk =   0.0204082
        k(   39) = (   0.2142857   0.3571429  -0.3750000), wk =   0.0204082
        k(   40) = (   0.2142857   0.3571429  -0.1250000), wk =   0.0204082
        k(   41) = (   0.2142857  -0.5000000   0.1250000), wk =   0.0204082
        k(   42) = (   0.2142857  -0.5000000   0.3750000), wk =   0.0204082
        k(   43) = (   0.2142857  -0.5000000  -0.3750000), wk =   0.0204082
        k(   44) = (   0.2142857  -0.5000000  -0.1250000), wk =   0.0204082
        k(   45) = (   0.2142857  -0.3571429   0.1250000), wk =   0.0204082
        k(   46) = (   0.2142857  -0.3571429   0.3750000), wk =   0.0204082
        k(   47) = (   0.2142857  -0.3571429  -0.3750000), wk =   0.0204082
        k(   48) = (   0.2142857  -0.3571429  -0.1250000), wk =   0.0204082
        k(   49) = (   0.2142857  -0.2142857   0.1250000), wk =   0.0204082
        k(   50) = (   0.2142857  -0.2142857   0.3750000), wk =   0.0204082
        k(   51) = (   0.2142857  -0.2142857  -0.3750000), wk =   0.0204082
        k(   52) = (   0.2142857  -0.2142857  -0.1250000), wk =   0.0204082
        k(   53) = (   0.2142857  -0.0714286   0.1250000), wk =   0.0204082
        k(   54) = (   0.2142857  -0.0714286   0.3750000), wk =   0.0204082
        k(   55) = (   0.2142857  -0.0714286  -0.3750000), wk =   0.0204082
        k(   56) = (   0.2142857  -0.0714286  -0.1250000), wk =   0.0204082
        k(   57) = (   0.3571429   0.0714286   0.1250000), wk =   0.0204082
        k(   58) = (   0.3571429   0.0714286   0.3750000), wk =   0.0204082
        k(   59) = (   0.3571429   0.0714286  -0.3750000), wk =   0.0204082
        k(   60) = (   0.3571429   0.0714286  -0.1250000), wk =   0.0204082
        k(   61) = (   0.3571429   0.2142857   0.1250000), wk =   0.0204082
        k(   62) = (   0.3571429   0.2142857   0.3750000), wk =   0.0204082
        k(   63) = (   0.3571429   0.2142857  -0.3750000), wk =   0.0204082
        k(   64) = (   0.3571429   0.2142857  -0.1250000), wk =   0.0204082
        k(   65) = (   0.3571429   0.3571429   0.1250000), wk =   0.0204082
        k(   66) = (   0.3571429   0.3571429   0.3750000), wk =   0.0204082
        k(   67) = (   0.3571429   0.3571429  -0.3750000), wk =   0.0204082
        k(   68) = (   0.3571429   0.3571429  -0.1250000), wk =   0.0204082
        k(   69) = (   0.3571429  -0.5000000   0.1250000), wk =   0.0204082
        k(   70) = (   0.3571429  -0.5000000   0.3750000), wk =   0.0204082
        k(   71) = (   0.3571429  -0.5000000  -0.3750000), wk =   0.0204082
        k(   72) = (   0.3571429  -0.5000000  -0.1250000), wk =   0.0204082
        k(   73) = (   0.3571429  -0.3571429   0.1250000), wk =   0.0204082
        k(   74) = (   0.3571429  -0.3571429   0.3750000), wk =   0.0204082
        k(   75) = (   0.3571429  -0.3571429  -0.3750000), wk =   0.0204082
        k(   76) = (   0.3571429  -0.3571429  -0.1250000), wk =   0.0204082
        k(   77) = (   0.3571429  -0.2142857   0.1250000), wk =   0.0204082
        k(   78) = (   0.3571429  -0.2142857   0.3750000), wk =   0.0204082
        k(   79) = (   0.3571429  -0.2142857  -0.3750000), wk =   0.0204082
        k(   80) = (   0.3571429  -0.2142857  -0.1250000), wk =   0.0204082
        k(   81) = (   0.3571429  -0.0714286   0.1250000), wk =   0.0204082
        k(   82) = (   0.3571429  -0.0714286   0.3750000), wk =   0.0204082
        k(   83) = (   0.3571429  -0.0714286  -0.3750000), wk =   0.0204082
        k(   84) = (   0.3571429  -0.0714286  -0.1250000), wk =   0.0204082
        k(   85) = (  -0.5000000   0.0714286   0.1250000), wk =   0.0204082
        k(   86) = (  -0.5000000   0.0714286   0.3750000), wk =   0.0204082
        k(   87) = (  -0.5000000   0.0714286  -0.3750000), wk =   0.0204082
        k(   88) = (  -0.5000000   0.0714286  -0.1250000), wk =   0.0204082
        k(   89) = (  -0.5000000   0.2142857   0.1250000), wk =   0.0204082
        k(   90) = (  -0.5000000   0.2142857   0.3750000), wk =   0.0204082
        k(   91) = (  -0.5000000   0.2142857  -0.3750000), wk =   0.0204082
        k(   92) = (  -0.5000000   0.2142857  -0.1250000), wk =   0.0204082
        k(   93) = (  -0.5000000   0.3571429   0.1250000), wk =   0.0204082
        k(   94) = (  -0.5000000   0.3571429   0.3750000), wk =   0.0204082
        k(   95) = (  -0.5000000   0.3571429  -0.3750000), wk =   0.0204082
        k(   96) = (  -0.5000000   0.3571429  -0.1250000), wk =   0.0204082
        k(   97) = (  -0.5000000  -0.5000000   0.1250000), wk =   0.0204082
        k(   98) = (  -0.5000000  -0.5000000   0.3750000), wk =   0.0204082

     Dense  grid:    35591 G-vectors     FFT dimensions: (  40,  40,  60)

     Smooth grid:    19411 G-vectors     FFT dimensions: (  30,  30,  50)

     Dynamical RAM for                 wfc:       0.67 MB

     Dynamical RAM for     wfc (w. buffer):      65.86 MB

     Dynamical RAM for           str. fact:       1.09 MB

     Dynamical RAM for           local pot:       0.00 MB

     Dynamical RAM for          nlocal pot:       1.92 MB

     Dynamical RAM for                qrad:       6.09 MB

     Dynamical RAM for          rho,v,vnew:       3.83 MB

     Dynamical RAM for               rhoin:       1.28 MB

     Dynamical RAM for            rho*nmix:       8.69 MB

     Dynamical RAM for           G-vectors:       2.18 MB

     Dynamical RAM for          h,s,v(r/c):       0.06 MB

     Dynamical RAM for          <psi|beta>:       0.01 MB

     Dynamical RAM for                 psi:       1.33 MB

     Dynamical RAM for                hpsi:       1.33 MB

     Dynamical RAM for                spsi:       1.33 MB

     Dynamical RAM for      wfcinit/wfcrot:       1.94 MB

     Dynamical RAM for           addusdens:     102.10 MB

     Dynamical RAM for          addusforce:     103.46 MB

     Dynamical RAM for         addusstress:     109.16 MB

     Estimated static dynamical RAM per process >      96.22 MB

     Estimated max dynamical RAM per process >     205.38 MB

     Check: negative core charge=   -0.000003

     Initial potential from superposition of free atoms

     starting charge   35.99408, renormalised to   36.00000
     Starting wfcs are   26 randomized atomic wfcs

     total cpu time spent up to now is        4.3 secs

     Self-consistent Calculation

     iteration #  1     ecut=    60.00 Ry     beta= 0.70
     Davidson diagonalization with overlap
     ethr =  1.00E-02,  avg # of iterations =  2.0

     total cpu time spent up to now is        9.9 secs

     total energy              =    -382.68180252 Ry
     estimated scf accuracy    <       0.98995770 Ry

     iteration #  2     ecut=    60.00 Ry     beta= 0.70
     Davidson diagonalization with overlap
     ethr =  2.75E-03,  avg # of iterations =  4.0

     total cpu time spent up to now is       17.4 secs

     total energy              =    -382.96227506 Ry
     estimated scf accuracy    <       0.91244212 Ry

     iteration #  3     ecut=    60.00 Ry     beta= 0.70
     Davidson diagonalization with overlap
     ethr =  2.53E-03,  avg # of iterations =  2.0

     total cpu time spent up to now is       23.7 secs

     total energy              =    -383.11969203 Ry
     estimated scf accuracy    <       0.00802329 Ry

     iteration #  4     ecut=    60.00 Ry     beta= 0.70
     Davidson diagonalization with overlap
     ethr =  2.23E-05,  avg # of iterations =  5.5

     total cpu time spent up to now is       33.0 secs

     total energy              =    -383.12681802 Ry
     estimated scf accuracy    <       0.00609047 Ry

     iteration #  5     ecut=    60.00 Ry     beta= 0.70
     Davidson diagonalization with overlap
     ethr =  1.69E-05,  avg # of iterations =  2.0

     total cpu time spent up to now is       38.6 secs

     total energy              =    -383.12694785 Ry
     estimated scf accuracy    <       0.00119463 Ry

     iteration #  6     ecut=    60.00 Ry     beta= 0.70
     Davidson diagonalization with overlap
     ethr =  3.32E-06,  avg # of iterations =  2.7

     total cpu time spent up to now is       44.5 secs

     total energy              =    -383.12704025 Ry
     estimated scf accuracy    <       0.00019468 Ry

     iteration #  7     ecut=    60.00 Ry     beta= 0.70
     Davidson diagonalization with overlap
     ethr =  5.41E-07,  avg # of iterations =  4.1

     total cpu time spent up to now is       50.8 secs

     total energy              =    -383.12707649 Ry
     estimated scf accuracy    <       0.00001554 Ry

     iteration #  8     ecut=    60.00 Ry     beta= 0.70
     Davidson diagonalization with overlap
     ethr =  4.32E-08,  avg # of iterations =  2.6

     total cpu time spent up to now is       56.6 secs

     total energy              =    -383.12707654 Ry
     estimated scf accuracy    <       0.00000586 Ry

     iteration #  9     ecut=    60.00 Ry     beta= 0.70
     Davidson diagonalization with overlap
     ethr =  1.63E-08,  avg # of iterations =  2.0

     total cpu time spent up to now is       62.4 secs

     total energy              =    -383.12707654 Ry
     estimated scf accuracy    <       0.00000115 Ry

     iteration # 10     ecut=    60.00 Ry     beta= 0.70
     Davidson diagonalization with overlap
     ethr =  3.18E-09,  avg # of iterations =  4.1

     total cpu time spent up to now is       69.4 secs

     total energy              =    -383.12707691 Ry
     estimated scf accuracy    <       0.00000003 Ry

     iteration # 11     ecut=    60.00 Ry     beta= 0.70
     Davidson diagonalization with overlap
     ethr =  8.68E-11,  avg # of iterations =  2.3

     total cpu time spent up to now is       75.0 secs

     total energy              =    -383.12707690 Ry
     estimated scf accuracy    <       0.00000003 Ry

     iteration # 12     ecut=    60.00 Ry     beta= 0.70
     Davidson diagonalization with overlap
     ethr =  8.13E-11,  avg # of iterations =  2.0

     total cpu time spent up to now is       80.2 secs

     total energy              =    -383.12707690 Ry
     estimated scf accuracy    <       0.00000001 Ry

     iteration # 13     ecut=    60.00 Ry     beta= 0.70
     Davidson diagonalization with overlap
     ethr =  4.03E-11,  avg # of iterations =  2.0

     total cpu time spent up to now is       86.0 secs

     total energy              =    -383.12707690 Ry
     estimated scf accuracy    <          2.4E-09 Ry

     iteration # 14     ecut=    60.00 Ry     beta= 0.70
     Davidson diagonalization with overlap
     ethr =  6.63E-12,  avg # of iterations =  4.1

     total cpu time spent up to now is       92.7 secs

     total energy              =    -383.12707690 Ry
     estimated scf accuracy    <          1.3E-11 Ry

     iteration # 15     ecut=    60.00 Ry     beta= 0.70
     Davidson diagonalization with overlap
     ethr =  1.00E-13,  avg # of iterations =  2.6

     total cpu time spent up to now is       98.7 secs

     total energy              =    -383.12707690 Ry
     estimated scf accuracy    <          3.2E-12 Ry

     iteration # 16     ecut=    60.00 Ry     beta= 0.70
     Davidson diagonalization with overlap
     ethr =  1.00E-13,  avg # of iterations =  1.0

     total cpu time spent up to now is      103.4 secs

     total energy              =    -383.12707690 Ry
     estimated scf accuracy    <          2.5E-13 Ry

     iteration # 17     ecut=    60.00 Ry     beta= 0.70
     Davidson diagonalization with overlap
     ethr =  1.00E-13,  avg # of iterations =  1.0

     total cpu time spent up to now is      108.3 secs

     total energy              =    -383.12707690 Ry
     estimated scf accuracy    <          2.0E-13 Ry

     iteration # 18     ecut=    60.00 Ry     beta= 0.70
     Davidson diagonalization with overlap
     ethr =  1.00E-13,  avg # of iterations =  1.0

     total cpu time spent up to now is      112.9 secs

     total energy              =    -383.12707690 Ry
     estimated scf accuracy    <          2.1E-13 Ry

     iteration # 19     ecut=    60.00 Ry     beta= 0.70
     Davidson diagonalization with overlap
     ethr =  1.00E-13,  avg # of iterations =  1.0

     total cpu time spent up to now is      117.7 secs

     total energy              =    -383.12707690 Ry
     estimated scf accuracy    <          7.1E-14 Ry

     iteration # 20     ecut=    60.00 Ry     beta= 0.70
     Davidson diagonalization with overlap
     ethr =  1.00E-13,  avg # of iterations =  1.0

     total cpu time spent up to now is      122.4 secs

     total energy              =    -383.12707690 Ry
     estimated scf accuracy    <          3.9E-14 Ry

     iteration # 21     ecut=    60.00 Ry     beta= 0.70
     Davidson diagonalization with overlap
     ethr =  1.00E-13,  avg # of iterations =  1.0

     total cpu time spent up to now is      127.1 secs

     total energy              =    -383.12707690 Ry
     estimated scf accuracy    <          3.7E-14 Ry

     iteration # 22     ecut=    60.00 Ry     beta= 0.70
     Davidson diagonalization with overlap
     ethr =  1.00E-13,  avg # of iterations =  1.0

     total cpu time spent up to now is      131.8 secs

     End of self-consistent calculation

          k = 0.0714 0.1237 0.0768 (  2423 PWs)   bands (ev):

    -6.0535  -5.3150  -3.7167  -3.7011  -3.6674  -3.6501  -3.6319  -3.4739
    -3.4679  -3.4008  -3.3724  -2.1786   3.1784   7.7675   8.1747   8.5706
     9.4503   9.5106

     occupation numbers 
     1.0000   1.0000   1.0000   1.0000   1.0000   1.0000   1.0000   1.0000
     1.0000   1.0000   1.0000   1.0000   1.0000   1.0000   1.0000   1.0000
     1.0000   1.0000

          k = 0.0714 0.1237 0.2305 (  2436 PWs)   bands (ev):

    -5.7672  -5.4508  -3.6986  -3.6886  -3.6730  -3.6623  -3.5565  -3.4451
    -3.4281  -3.4023  -3.3805  -2.9373   4.8214   6.8338   8.1755   8.6732
     8.8951   9.1681

     occupation numbers 
     1.0000   1.0000   1.0000   1.0000   1.0000   1.0000   1.0000   1.0000
     1.0000   1.0000   1.0000   1.0000   1.0000   1.0000   1.0000   1.0000
     1.0000   1.0000

          k = 0.0714 0.1237-0.2305 (  2436 PWs)   bands (ev):

    -5.7672  -5.4508  -3.6986  -3.6886  -3.6730  -3.6623  -3.5565  -3.4451
    -3.4281  -3.4023  -3.3805  -2.9373   4.8214   6.8338   8.1755   8.6732
     8.8951   9.1681

     occupation numbers 
     1.0000   1.0000   1.0000   1.0000   1.0000   1.0000   1.0000   1.0000
     1.0000   1.0000   1.0000   1.0000   1.0000   1.0000   1.0000   1.0000
     1.0000   1.0000

          k = 0.0714 0.1237-0.0768 (  2423 PWs)   bands (ev):

    -6.0535  -5.3150  -3.7167  -3.7011  -3.6674  -3.6501  -3.6319  -3.4739
    -3.4679  -3.4008  -3.3724  -2.1786   3.1784   7.7675   8.1747   8.5706
     9.4503   9.5106

     occupation numbers 
     1.0000   1.0000   1.0000   1.0000   1.0000   1.0000   1.0000   1.0000
     1.0000   1.0000   1.0000   1.0000   1.0000   1.0000   1.0000   1.0000
     1.0000   1.0000

          k = 0.0714 0.2887 0.0768 (  2435 PWs)   bands (ev):

    -5.6918  -5.2330  -3.6756  -3.6638  -3.6034  -3.5714  -3.5053  -3.4731
    -3.4475  -3.3882  -3.3223  -1.8601   3.7054   5.8595   6.5740   7.6690
     8.9672   9.0457

     occupation numbers 
     1.0000   1.0000   1.0000   1.0000   1.0000   1.0000   1.0000   1.0000
     1.0000   1.0000   1.0000   1.0000   1.0000   1.0000   1.0000   1.0000
     1.0000   1.0000

          k = 0.0714 0.2887 0.2305 (  2430 PWs)   bands (ev):

    -5.4937  -5.3022  -3.6677  -3.6385  -3.6321  -3.5965  -3.5072  -3.4934
    -3.4219  -3.3949  -3.1034  -2.5460   4.6195   5.6279   6.9703   7.9617
     8.3698   8.6006

     occupation numbers 
     1.0000   1.0000   1.0000   1.0000   1.0000   1.0000   1.0000   1.0000
     1.0000   1.0000   1.0000   1.0000   1.0000   1.0000   1.0000   1.0000
     1.0000   1.0000

          k = 0.0714 0.2887-0.2305 (  2430 PWs)   bands (ev):

    -5.4937  -5.3022  -3.6676  -3.6385  -3.6322  -3.5965  -3.5073  -3.4933
    -3.4219  -3.3949  -3.1034  -2.5460   4.6195   5.6279   6.9703   7.9617
     8.3698   8.6006

     occupation numbers 
     1.0000   1.0000   1.0000   1.0000   1.0000   1.0000   1.0000   1.0000
     1.0000   1.0000   1.0000   1.0000   1.0000   1.0000   1.0000   1.0000
     1.0000   1.0000

          k = 0.0714 0.2887-0.0768 (  2435 PWs)   bands (ev):

    -5.6918  -5.2330  -3.6755  -3.6639  -3.6035  -3.5714  -3.5053  -3.4731
    -3.4475  -3.3882  -3.3223  -1.8601   3.7054   5.8595   6.5740   7.6690
     8.9672   9.0456

     occupation numbers 
     1.0000   1.0000   1.0000   1.0000   1.0000   1.0000   1.0000   1.0000
     1.0000   1.0000   1.0000   1.0000   1.0000   1.0000   1.0000   1.0000
     1.0000   1.0000

          k = 0.0714 0.4536 0.0768 (  2414 PWs)   bands (ev):

    -5.3919  -5.1829  -3.6699  -3.6469  -3.5579  -3.5194  -3.4939  -3.4543
    -3.4029  -3.3621  -2.6583  -1.5955   3.5272   4.7331   5.5856   6.9638
     8.1473   8.5705

     occupation numbers 
     1.0000   1.0000   1.0000   1.0000   1.0000   1.0000   1.0000   1.0000
     1.0000   1.0000   1.0000   1.0000   1.0000   1.0000   1.0000   1.0000
     1.0000   1.0000

          k = 0.0714 0.4536 0.2305 (  2425 PWs)   bands (ev):

    -5.2882  -5.2022  -3.6739  -3.6342  -3.5986  -3.5332  -3.4843  -3.4444
    -3.3939  -3.3804  -2.4398  -2.0067   3.4698   4.0274   6.9324   7.4649
     7.9416   8.3622

     occupation numbers 
     1.0000   1.0000   1.0000   1.0000   1.0000   1.0000   1.0000   1.0000
     1.0000   1.0000   1.0000   1.0000   1.0000   1.0000   1.0000   1.0000
     1.0000   1.0000

          k = 0.0714 0.4536-0.2305 (  2425 PWs)   bands (ev):

    -5.2882  -5.2022  -3.6739  -3.6342  -3.5986  -3.5332  -3.4843  -3.4444
    -3.3940  -3.3804  -2.4398  -2.0067   3.4698   4.0274   6.9324   7.4648
     7.9416   8.3621

     occupation numbers 
     1.0000   1.0000   1.0000   1.0000   1.0000   1.0000   1.0000   1.0000
     1.0000   1.0000   1.0000   1.0000   1.0000   1.0000   1.0000   1.0000
     1.0000   1.0000

          k = 0.0714 0.4536-0.0768 (  2414 PWs)   bands (ev):

    -5.3919  -5.1829  -3.6699  -3.6469  -3.5580  -3.5193  -3.4938  -3.4543
    -3.4029  -3.3621  -2.6583  -1.5955   3.5272   4.7331   5.5856   6.9638
     8.1473   8.5705

     occupation numbers 
     1.0000   1.0000   1.0000   1.0000   1.0000   1.0000   1.0000   1.0000
     1.0000   1.0000   1.0000   1.0000   1.0000   1.0000   1.0000   1.0000
     1.0000   1.0000

          k = 0.0714-0.5361 0.0768 (  2409 PWs)   bands (ev):

    -5.3322  -5.1755  -3.6745  -3.6446  -3.5451  -3.5298  -3.4773  -3.4394
    -3.3893  -3.3577  -2.2723  -1.6669   3.2690   4.3503   5.7824   6.8464
     7.7617   8.4614

     occupation numbers 
     1.0000   1.0000   1.0000   1.0000   1.0000   1.0000   1.0000   1.0000
     1.0000   1.0000   1.0000   1.0000   1.0000   1.0000   1.0000   1.0000
     1.0000   1.0000

          k = 0.0714-0.5361 0.2305 (  2410 PWs)   bands (ev):

    -5.2494  -5.1847  -3.6792  -3.6373  -3.5950  -3.5207  -3.4745  -3.4243
    -3.3851  -3.3756  -2.1335  -1.8784   3.0898   3.5515   6.9570   7.4977
     7.8093   8.2875

     occupation numbers 
     1.0000   1.0000   1.0000   1.0000   1.0000   1.0000   1.0000   1.0000
     1.0000   1.0000   1.0000   1.0000   1.0000   1.0000   1.0000   1.0000
     1.0000   1.0000

          k = 0.0714-0.5361-0.2305 (  2410 PWs)   bands (ev):

    -5.2494  -5.1847  -3.6792  -3.6373  -3.5950  -3.5207  -3.4745  -3.4243
    -3.3850  -3.3756  -2.1335  -1.8784   3.0898   3.5514   6.9570   7.4977
     7.8092   8.2875

     occupation numbers 
     1.0000   1.0000   1.0000   1.0000   1.0000   1.0000   1.0000   1.0000
     1.0000   1.0000   1.0000   1.0000   1.0000   1.0000   1.0000   1.0000
     1.0000   1.0000

          k = 0.0714-0.5361-0.0768 (  2409 PWs)   bands (ev):

    -5.3322  -5.1755  -3.6745  -3.6446  -3.5451  -3.5298  -3.4773  -3.4394
    -3.3892  -3.3577  -2.2723  -1.6669   3.2690   4.3503   5.7824   6.8464
     7.7617   8.4614

     occupation numbers 
     1.0000   1.0000   1.0000   1.0000   1.0000   1.0000   1.0000   1.0000
     1.0000   1.0000   1.0000   1.0000   1.0000   1.0000   1.0000   1.0000
     1.0000   1.0000

          k = 0.0714-0.3712 0.0768 (  2421 PWs)   bands (ev):

    -5.5146  -5.2013  -3.6666  -3.6533  -3.5770  -3.5275  -3.5080  -3.4699
    -3.4257  -3.3691  -3.0542  -1.6826   3.8171   5.1538   5.8273   7.2510
     8.5989   8.7752

     occupation numbers 
     1.0000   1.0000   1.0000   1.0000   1.0000   1.0000   1.0000   1.0000
     1.0000   1.0000   1.0000   1.0000   1.0000   1.0000   1.0000   1.0000
     1.0000   1.0000

          k = 0.0714-0.3712 0.2305 (  2424 PWs)   bands (ev):

    -5.3700  -5.2409  -3.6674  -3.6318  -3.6102  -3.5597  -3.4963  -3.4737
    -3.4086  -3.3883  -2.8055  -2.2666   4.0834   4.7830   6.8490   7.6394
     8.1562   8.4423

     occupation numbers 
     1.0000   1.0000   1.0000   1.0000   1.0000   1.0000   1.0000   1.0000
     1.0000   1.0000   1.0000   1.0000   1.0000   1.0000   1.0000   1.0000
     1.0000   1.0000

          k = 0.0714-0.3712-0.2305 (  2424 PWs)   bands (ev):

    -5.3700  -5.2409  -3.6674  -3.6317  -3.6102  -3.5597  -3.4964  -3.4737
    -3.4085  -3.3883  -2.8055  -2.2666   4.0834   4.7830   6.8489   7.6395
     8.1561   8.4424

     occupation numbers 
     1.0000   1.0000   1.0000   1.0000   1.0000   1.0000   1.0000   1.0000
     1.0000   1.0000   1.0000   1.0000   1.0000   1.0000   1.0000   1.0000
     1.0000   1.0000

          k = 0.0714-0.3712-0.0768 (  2421 PWs)   bands (ev):

    -5.5146  -5.2013  -3.6666  -3.6533  -3.5769  -3.5275  -3.5081  -3.4698
    -3.4257  -3.3691  -3.0542  -1.6826   3.8172   5.1538   5.8273   7.2510
     8.5989   8.7752

     occupation numbers 
     1.0000   1.0000   1.0000   1.0000   1.0000   1.0000   1.0000   1.0000
     1.0000   1.0000   1.0000   1.0000   1.0000   1.0000   1.0000   1.0000
     1.0000   1.0000

          k = 0.0714-0.2062 0.0768 (  2431 PWs)   bands (ev):

    -5.8882  -5.2745  -3.6959  -3.6810  -3.6323  -3.6175  -3.5652  -3.4793
    -3.4657  -3.4201  -3.3670  -2.0409   3.4187   6.8456   7.3973   8.1488
     9.2553   9.2985

     occupation numbers 
     1.0000   1.0000   1.0000   1.0000   1.0000   1.0000   1.0000   1.0000
     1.0000   1.0000   1.0000   1.0000   1.0000   1.0000   1.0000   1.0000
     1.0000   1.0000

          k = 0.0714-0.2062 0.2305 (  2432 PWs)   bands (ev):

    -5.6388  -5.3787  -3.6810  -3.6633  -3.6529  -3.6332  -3.5347  -3.4744
    -3.4285  -3.3986  -3.2910  -2.7761   4.8272   6.3756   7.4845   8.3163
     8.5901   8.8881

     occupation numbers 
     1.0000   1.0000   1.0000   1.0000   1.0000   1.0000   1.0000   1.0000
     1.0000   1.0000   1.0000   1.0000   1.0000   1.0000   1.0000   1.0000
     1.0000   1.0000

          k = 0.0714-0.2062-0.2305 (  2432 PWs)   bands (ev):

    -5.6388  -5.3787  -3.6810  -3.6633  -3.6528  -3.6332  -3.5347  -3.4744
    -3.4284  -3.3986  -3.2910  -2.7761   4.8273   6.3756   7.4845   8.3163
     8.5901   8.8881

     occupation numbers 
     1.0000   1.0000   1.0000   1.0000   1.0000   1.0000   1.0000   1.0000
     1.0000   1.0000   1.0000   1.0000   1.0000   1.0000   1.0000   1.0000
     1.0000   1.0000

          k = 0.0714-0.2062-0.0768 (  2431 PWs)   bands (ev):

    -5.8882  -5.2745  -3.6959  -3.6810  -3.6322  -3.6175  -3.5652  -3.4794
    -3.4657  -3.4201  -3.3670  -2.0409   3.4187   6.8456   7.3973   8.1488
     9.2553   9.2985

     occupation numbers 
     1.0000   1.0000   1.0000   1.0000   1.0000   1.0000   1.0000   1.0000
     1.0000   1.0000   1.0000   1.0000   1.0000   1.0000   1.0000   1.0000
     1.0000   1.0000

          k = 0.0714-0.0412 0.0768 (  2435 PWs)   bands (ev):

    -6.1466  -5.3403  -3.7266  -3.7146  -3.6991  -3.6603  -3.6559  -3.4692
    -3.4667  -3.3850  -3.3745  -2.2522   3.0488   8.3500   8.6267   8.8967
     9.5610   9.6414

     occupation numbers 
     1.0000   1.0000   1.0000   1.0000   1.0000   1.0000   1.0000   1.0000
     1.0000   1.0000   1.0000   1.0000   1.0000   1.0000   1.0000   1.0000
     1.0000   1.0000

          k = 0.0714-0.0412 0.2305 (  2435 PWs)   bands (ev):

    -5.8419  -5.4946  -3.7083  -3.7042  -3.6840  -3.6797  -3.5696  -3.4335
    -3.4224  -3.4114  -3.3956  -3.0241   4.7830   7.0048   8.6773   8.9116
     9.1660   9.3316

     occupation numbers 
     1.0000   1.0000   1.0000   1.0000   1.0000   1.0000   1.0000   1.0000
     1.0000   1.0000   1.0000   1.0000   1.0000   1.0000   1.0000   1.0000
     1.0000   1.0000

          k = 0.0714-0.0412-0.2305 (  2435 PWs)   bands (ev):

    -5.8419  -5.4946  -3.7083  -3.7042  -3.6840  -3.6797  -3.5696  -3.4335
    -3.4224  -3.4115  -3.3956  -3.0241   4.7830   7.0048   8.6773   8.9116
     9.1660   9.3316

     occupation numbers 
     1.0000   1.0000   1.0000   1.0000   1.0000   1.0000   1.0000   1.0000
     1.0000   1.0000   1.0000   1.0000   1.0000   1.0000   1.0000   1.0000
     1.0000   1.0000

          k = 0.0714-0.0412-0.0768 (  2435 PWs)   bands (ev):

    -6.1466  -5.3403  -3.7266  -3.7146  -3.6991  -3.6603  -3.6559  -3.4692
    -3.4667  -3.3850  -3.3745  -2.2522   3.0488   8.3500   8.6267   8.8967
     9.5610   9.6414

     occupation numbers 
     1.0000   1.0000   1.0000   1.0000   1.0000   1.0000   1.0000   1.0000
     1.0000   1.0000   1.0000   1.0000   1.0000   1.0000   1.0000   1.0000
     1.0000   1.0000

          k = 0.2143 0.2062 0.0768 (  2435 PWs)   bands (ev):

    -5.6918  -5.2330  -3.6755  -3.6639  -3.6035  -3.5714  -3.5053  -3.4731
    -3.4475  -3.3882  -3.3223  -1.8601   3.7054   5.8595   6.5740   7.6690
     8.9672   9.0456

     occupation numbers 
     1.0000   1.0000   1.0000   1.0000   1.0000   1.0000   1.0000   1.0000
     1.0000   1.0000   1.0000   1.0000   1.0000   1.0000   1.0000   1.0000
     1.0000   1.0000

          k = 0.2143 0.2062 0.2305 (  2430 PWs)   bands (ev):

    -5.4937  -5.3022  -3.6676  -3.6385  -3.6322  -3.5965  -3.5073  -3.4933
    -3.4219  -3.3949  -3.1034  -2.5460   4.6195   5.6279   6.9703   7.9617
     8.3698   8.6006

     occupation numbers 
     1.0000   1.0000   1.0000   1.0000   1.0000   1.0000   1.0000   1.0000
     1.0000   1.0000   1.0000   1.0000   1.0000   1.0000   1.0000   1.0000
     1.0000   1.0000

          k = 0.2143 0.2062-0.2305 (  2430 PWs)   bands (ev):

    -5.4937  -5.3022  -3.6677  -3.6385  -3.6321  -3.5965  -3.5072  -3.4934
    -3.4219  -3.3949  -3.1034  -2.5460   4.6195   5.6279   6.9703   7.9617
     8.3698   8.6006

     occupation numbers 
     1.0000   1.0000   1.0000   1.0000   1.0000   1.0000   1.0000   1.0000
     1.0000   1.0000   1.0000   1.0000   1.0000   1.0000   1.0000   1.0000
     1.0000   1.0000

          k = 0.2143 0.2062-0.0768 (  2435 PWs)   bands (ev):

    -5.6918  -5.2330  -3.6756  -3.6638  -3.6034  -3.5714  -3.5053  -3.4731
    -3.4475  -3.3882  -3.3223  -1.8601   3.7054   5.8595   6.5740   7.6690
     8.9672   9.0457

     occupation numbers 
     1.0000   1.0000   1.0000   1.0000   1.0000   1.0000   1.0000   1.0000
     1.0000   1.0000   1.0000   1.0000   1.0000   1.0000   1.0000   1.0000
     1.0000   1.0000

          k = 0.2143 0.3712 0.0768 (  2422 PWs)   bands (ev):

    -5.4159  -5.1881  -3.6821  -3.6188  -3.5571  -3.5414  -3.4914  -3.4735
    -3.4106  -3.3916  -2.7965  -1.5627   3.9171   5.0569   5.6777   6.4057
     7.9991   8.4084

     occupation numbers 
     1.0000   1.0000   1.0000   1.0000   1.0000   1.0000   1.0000   1.0000
     1.0000   1.0000   1.0000   1.0000   1.0000   1.0000   1.0000   1.0000
     1.0000   1.0000

          k = 0.2143 0.3712 0.2305 (  2426 PWs)   bands (ev):

    -5.3030  -5.2097  -3.6361  -3.6334  -3.5926  -3.5671  -3.5013  -3.4840
    -3.4005  -3.3917  -2.5535  -2.0592   3.9658   4.5067   6.6154   7.1009
     7.4250   8.4485

     occupation numbers 
     1.0000   1.0000   1.0000   1.0000   1.0000   1.0000   1.0000   1.0000
     1.0000   1.0000   1.0000   1.0000   1.0000   1.0000   1.0000   1.0000
     1.0000   1.0000

          k = 0.2143 0.3712-0.2305 (  2426 PWs)   bands (ev):

    -5.3030  -5.2097  -3.6361  -3.6334  -3.5926  -3.5671  -3.5013  -3.4840
    -3.4005  -3.3917  -2.5535  -2.0592   3.9658   4.5067   6.6154   7.1009
     7.4250   8.4485

     occupation numbers 
     1.0000   1.0000   1.0000   1.0000   1.0000   1.0000   1.0000   1.0000
     1.0000   1.0000   1.0000   1.0000   1.0000   1.0000   1.0000   1.0000
     1.0000   1.0000

          k = 0.2143 0.3712-0.0768 (  2422 PWs)   bands (ev):

    -5.4159  -5.1881  -3.6821  -3.6188  -3.5571  -3.5414  -3.4914  -3.4735
    -3.4106  -3.3916  -2.7965  -1.5627   3.9171   5.0569   5.6777   6.4057
     7.9991   8.4084

     occupation numbers 
     1.0000   1.0000   1.0000   1.0000   1.0000   1.0000   1.0000   1.0000
     1.0000   1.0000   1.0000   1.0000   1.0000   1.0000   1.0000   1.0000
     1.0000   1.0000

          k = 0.2143 0.5361 0.0768 (  2415 PWs)   bands (ev):

    -5.2697  -5.1809  -3.7005  -3.5939  -3.5309  -3.4995  -3.4935  -3.4536
    -3.4152  -3.3900  -2.0484  -1.5694   3.6786   4.4019   5.3023   6.4231
     7.3413   7.6057

     occupation numbers 
     1.0000   1.0000   1.0000   1.0000   1.0000   1.0000   1.0000   1.0000
     1.0000   1.0000   1.0000   1.0000   1.0000   1.0000   1.0000   1.0000
     1.0000   1.0000

          k = 0.2143 0.5361 0.2305 (  2405 PWs)   bands (ev):

    -5.2092  -5.1727  -3.6410  -3.6157  -3.6011  -3.5346  -3.4689  -3.4482
    -3.4107  -3.4022  -1.9246  -1.7215   3.4052   3.7133   5.7400   6.5910
     7.7198   8.2833

     occupation numbers 
     1.0000   1.0000   1.0000   1.0000   1.0000   1.0000   1.0000   1.0000
     1.0000   1.0000   1.0000   1.0000   1.0000   1.0000   1.0000   1.0000
     1.0000   1.0000

          k = 0.2143 0.5361-0.2305 (  2405 PWs)   bands (ev):

    -5.2092  -5.1727  -3.6410  -3.6157  -3.6011  -3.5346  -3.4689  -3.4482
    -3.4108  -3.4022  -1.9246  -1.7215   3.4052   3.7133   5.7400   6.5910
     7.7198   8.2833

     occupation numbers 
     1.0000   1.0000   1.0000   1.0000   1.0000   1.0000   1.0000   1.0000
     1.0000   1.0000   1.0000   1.0000   1.0000   1.0000   1.0000   1.0000
     1.0000   1.0000

          k = 0.2143 0.5361-0.0768 (  2415 PWs)   bands (ev):

    -5.2697  -5.1809  -3.7005  -3.5939  -3.5310  -3.4995  -3.4935  -3.4536
    -3.4152  -3.3900  -2.0484  -1.5694   3.6786   4.4019   5.3023   6.4231
     7.3413   7.6057

     occupation numbers 
     1.0000   1.0000   1.0000   1.0000   1.0000   1.0000   1.0000   1.0000
     1.0000   1.0000   1.0000   1.0000   1.0000   1.0000   1.0000   1.0000
     1.0000   1.0000

          k = 0.2143-0.4536 0.0768 (  2415 PWs)   bands (ev):

    -5.3210  -5.1800  -3.6937  -3.6002  -3.5399  -3.5179  -3.4896  -3.4701
    -3.4065  -3.3911  -2.4045  -1.5001   3.8171   4.5699   5.7213   6.0399
     7.5885   7.9850

     occupation numbers 
     1.0000   1.0000   1.0000   1.0000   1.0000   1.0000   1.0000   1.0000
     1.0000   1.0000   1.0000   1.0000   1.0000   1.0000   1.0000   1.0000
     1.0000   1.0000

          k = 0.2143-0.4536 0.2305 (  2420 PWs)   bands (ev):

    -5.2412  -5.1835  -3.6380  -3.6253  -3.5918  -3.5452  -3.4859  -3.4710
    -3.4045  -3.3908  -2.2012  -1.8279   3.6210   4.0146   6.0528   6.8329
     7.4876   8.3875

     occupation numbers 
     1.0000   1.0000   1.0000   1.0000   1.0000   1.0000   1.0000   1.0000
     1.0000   1.0000   1.0000   1.0000   1.0000   1.0000   1.0000   1.0000
     1.0000   1.0000

          k = 0.2143-0.4536-0.2305 (  2420 PWs)   bands (ev):

    -5.2412  -5.1835  -3.6380  -3.6253  -3.5917  -3.5453  -3.4859  -3.4710
    -3.4044  -3.3909  -2.2012  -1.8279   3.6211   4.0146   6.0528   6.8329
     7.4876   8.3875

     occupation numbers 
     1.0000   1.0000   1.0000   1.0000   1.0000   1.0000   1.0000   1.0000
     1.0000   1.0000   1.0000   1.0000   1.0000   1.0000   1.0000   1.0000
     1.0000   1.0000

          k = 0.2143-0.4536-0.0768 (  2415 PWs)   bands (ev):

    -5.3210  -5.1800  -3.6937  -3.6002  -3.5398  -3.5180  -3.4897  -3.4700
    -3.4065  -3.3911  -2.4045  -1.5001   3.8171   4.5699   5.7212   6.0400
     7.5885   7.9850

     occupation numbers 
     1.0000   1.0000   1.0000   1.0000   1.0000   1.0000   1.0000   1.0000
     1.0000   1.0000   1.0000   1.0000   1.0000   1.0000   1.0000   1.0000
     1.0000   1.0000

          k = 0.2143-0.2887 0.0768 (  2422 PWs)   bands (ev):

    -5.5467  -5.2069  -3.6699  -3.6481  -3.5802  -3.5569  -3.4992  -3.4688
    -3.4264  -3.3895  -3.1182  -1.7068   3.8768   5.5287   5.8718   7.0918
     8.5184   8.7580

     occupation numbers 
     1.0000   1.0000   1.0000   1.0000   1.0000   1.0000   1.0000   1.0000
     1.0000   1.0000   1.0000   1.0000   1.0000   1.0000   1.0000   1.0000
     1.0000   1.0000

          k = 0.2143-0.2887 0.2305 (  2430 PWs)   bands (ev):

    -5.3915  -5.2513  -3.6511  -3.6322  -3.6112  -3.5837  -3.5027  -3.4923
    -3.4057  -3.3976  -2.8721  -2.3223   4.3303   5.0736   6.9483   7.3372
     7.9639   8.4643

     occupation numbers 
     1.0000   1.0000   1.0000   1.0000   1.0000   1.0000   1.0000   1.0000
     1.0000   1.0000   1.0000   1.0000   1.0000   1.0000   1.0000   1.0000
     1.0000   1.0000

          k = 0.2143-0.2887-0.2305 (  2430 PWs)   bands (ev):

    -5.3915  -5.2513  -3.6510  -3.6323  -3.6112  -3.5836  -3.5027  -3.4923
    -3.4058  -3.3976  -2.8721  -2.3223   4.3303   5.0736   6.9484   7.3372
     7.9639   8.4643

     occupation numbers 
     1.0000   1.0000   1.0000   1.0000   1.0000   1.0000   1.0000   1.0000
     1.0000   1.0000   1.0000   1.0000   1.0000   1.0000   1.0000   1.0000
     1.0000   1.0000

          k = 0.2143-0.2887-0.0768 (  2422 PWs)   bands (ev):

    -5.5467  -5.2069  -3.6699  -3.6481  -3.5803  -3.5569  -3.4991  -3.4688
    -3.4264  -3.3895  -3.1182  -1.7068   3.8768   5.5287   5.8718   7.0918
     8.5184   8.7580

     occupation numbers 
     1.0000   1.0000   1.0000   1.0000   1.0000   1.0000   1.0000   1.0000
     1.0000   1.0000   1.0000   1.0000   1.0000   1.0000   1.0000   1.0000
     1.0000   1.0000

          k = 0.2143-0.1237 0.0768 (  2422 PWs)   bands (ev):

    -5.8165  -5.2585  -3.6911  -3.6706  -3.6232  -3.5871  -3.5407  -3.4859
    -3.4599  -3.4092  -3.3681  -1.9782   3.5246   6.3507   7.1914   7.9855
     9.1616   9.2883

     occupation numbers 
     1.0000   1.0000   1.0000   1.0000   1.0000   1.0000   1.0000   1.0000
     1.0000   1.0000   1.0000   1.0000   1.0000   1.0000   1.0000   1.0000
     1.0000   1.0000

          k = 0.2143-0.1237 0.2305 (  2428 PWs)   bands (ev):

    -5.5849  -5.3498  -3.6779  -3.6495  -3.6492  -3.6147  -3.5239  -3.4824
    -3.4311  -3.3931  -3.2369  -2.6995   4.7759   6.0948   7.1967   8.3381
     8.4197   8.8749

     occupation numbers 
     1.0000   1.0000   1.0000   1.0000   1.0000   1.0000   1.0000   1.0000
     1.0000   1.0000   1.0000   1.0000   1.0000   1.0000   1.0000   1.0000
     1.0000   1.0000

          k = 0.2143-0.1237-0.2305 (  2428 PWs)   bands (ev):

    -5.5849  -5.3498  -3.6778  -3.6495  -3.6493  -3.6147  -3.5239  -3.4823
    -3.4311  -3.3931  -3.2369  -2.6995   4.7759   6.0947   7.1968   8.3381
     8.4197   8.8749

     occupation numbers 
     1.0000   1.0000   1.0000   1.0000   1.0000   1.0000   1.0000   1.0000
     1.0000   1.0000   1.0000   1.0000   1.0000   1.0000   1.0000   1.0000
     1.0000   1.0000

          k = 0.2143-0.1237-0.0768 (  2422 PWs)   bands (ev):

    -5.8165  -5.2585  -3.6911  -3.6706  -3.6232  -3.5871  -3.5407  -3.4858
    -3.4599  -3.4092  -3.3681  -1.9782   3.5246   6.3507   7.1914   7.9855
     9.1616   9.2883

     occupation numbers 
     1.0000   1.0000   1.0000   1.0000   1.0000   1.0000   1.0000   1.0000
     1.0000   1.0000   1.0000   1.0000   1.0000   1.0000   1.0000   1.0000
     1.0000   1.0000

          k = 0.2143 0.0412 0.0768 (  2431 PWs)   bands (ev):

    -5.8882  -5.2745  -3.6959  -3.6810  -3.6323  -3.6175  -3.5652  -3.4793
    -3.4657  -3.4201  -3.3670  -2.0409   3.4187   6.8456   7.3973   8.1488
     9.2553   9.2985

     occupation numbers 
     1.0000   1.0000   1.0000   1.0000   1.0000   1.0000   1.0000   1.0000
     1.0000   1.0000   1.0000   1.0000   1.0000   1.0000   1.0000   1.0000
     1.0000   1.0000

          k = 0.2143 0.0412 0.2305 (  2432 PWs)   bands (ev):

    -5.6388  -5.3787  -3.6810  -3.6633  -3.6529  -3.6332  -3.5347  -3.4744
    -3.4285  -3.3986  -3.2910  -2.7761   4.8272   6.3756   7.4845   8.3163
     8.5901   8.8881

     occupation numbers 
     1.0000   1.0000   1.0000   1.0000   1.0000   1.0000   1.0000   1.0000
     1.0000   1.0000   1.0000   1.0000   1.0000   1.0000   1.0000   1.0000
     1.0000   1.0000

          k = 0.2143 0.0412-0.2305 (  2432 PWs)   bands (ev):

    -5.6388  -5.3787  -3.6810  -3.6633  -3.6528  -3.6332  -3.5347  -3.4744
    -3.4284  -3.3986  -3.2910  -2.7761   4.8273   6.3756   7.4845   8.3163
     8.5901   8.8881

     occupation numbers 
     1.0000   1.0000   1.0000   1.0000   1.0000   1.0000   1.0000   1.0000
     1.0000   1.0000   1.0000   1.0000   1.0000   1.0000   1.0000   1.0000
     1.0000   1.0000

          k = 0.2143 0.0412-0.0768 (  2431 PWs)   bands (ev):

    -5.8882  -5.2745  -3.6959  -3.6810  -3.6322  -3.6175  -3.5652  -3.4794
    -3.4657  -3.4201  -3.3670  -2.0409   3.4187   6.8456   7.3973   8.1488
     9.2553   9.2985

     occupation numbers 
     1.0000   1.0000   1.0000   1.0000   1.0000   1.0000   1.0000   1.0000
     1.0000   1.0000   1.0000   1.0000   1.0000   1.0000   1.0000   1.0000
     1.0000   1.0000

          k = 0.3571 0.2887 0.0768 (  2414 PWs)   bands (ev):

    -5.3919  -5.1829  -3.6699  -3.6469  -3.5580  -3.5193  -3.4938  -3.4543
    -3.4029  -3.3621  -2.6583  -1.5955   3.5272   4.7331   5.5856   6.9638
     8.1473   8.5705

     occupation numbers 
     1.0000   1.0000   1.0000   1.0000   1.0000   1.0000   1.0000   1.0000
     1.0000   1.0000   1.0000   1.0000   1.0000   1.0000   1.0000   1.0000
     1.0000   1.0000

          k = 0.3571 0.2887 0.2305 (  2425 PWs)   bands (ev):

    -5.2882  -5.2022  -3.6739  -3.6342  -3.5986  -3.5332  -3.4843  -3.4444
    -3.3940  -3.3804  -2.4398  -2.0067   3.4698   4.0274   6.9324   7.4648
     7.9416   8.3621

     occupation numbers 
     1.0000   1.0000   1.0000   1.0000   1.0000   1.0000   1.0000   1.0000
     1.0000   1.0000   1.0000   1.0000   1.0000   1.0000   1.0000   1.0000
     1.0000   1.0000

          k = 0.3571 0.2887-0.2305 (  2425 PWs)   bands (ev):

    -5.2882  -5.2022  -3.6739  -3.6342  -3.5986  -3.5332  -3.4843  -3.4444
    -3.3939  -3.3804  -2.4398  -2.0067   3.4698   4.0274   6.9324   7.4649
     7.9416   8.3622

     occupation numbers 
     1.0000   1.0000   1.0000   1.0000   1.0000   1.0000   1.0000   1.0000
     1.0000   1.0000   1.0000   1.0000   1.0000   1.0000   1.0000   1.0000
     1.0000   1.0000

          k = 0.3571 0.2887-0.0768 (  2414 PWs)   bands (ev):

    -5.3919  -5.1829  -3.6699  -3.6469  -3.5579  -3.5194  -3.4939  -3.4543
    -3.4029  -3.3621  -2.6583  -1.5955   3.5272   4.7331   5.5856   6.9638
     8.1473   8.5705

     occupation numbers 
     1.0000   1.0000   1.0000   1.0000   1.0000   1.0000   1.0000   1.0000
     1.0000   1.0000   1.0000   1.0000   1.0000   1.0000   1.0000   1.0000
     1.0000   1.0000

          k = 0.3571 0.4536 0.0768 (  2415 PWs)   bands (ev):

    -5.2697  -5.1809  -3.7005  -3.5939  -3.5310  -3.4995  -3.4935  -3.4536
    -3.4152  -3.3900  -2.0484  -1.5694   3.6786   4.4019   5.3023   6.4231
     7.3413   7.6057

     occupation numbers 
     1.0000   1.0000   1.0000   1.0000   1.0000   1.0000   1.0000   1.0000
     1.0000   1.0000   1.0000   1.0000   1.0000   1.0000   1.0000   1.0000
     1.0000   1.0000

          k = 0.3571 0.4536 0.2305 (  2405 PWs)   bands (ev):

    -5.2092  -5.1727  -3.6410  -3.6157  -3.6011  -3.5346  -3.4689  -3.4482
    -3.4108  -3.4022  -1.9246  -1.7215   3.4052   3.7133   5.7400   6.5910
     7.7198   8.2833

     occupation numbers 
     1.0000   1.0000   1.0000   1.0000   1.0000   1.0000   1.0000   1.0000
     1.0000   1.0000   1.0000   1.0000   1.0000   1.0000   1.0000   1.0000
     1.0000   1.0000

          k = 0.3571 0.4536-0.2305 (  2405 PWs)   bands (ev):

    -5.2092  -5.1727  -3.6410  -3.6157  -3.6011  -3.5346  -3.4689  -3.4482
    -3.4107  -3.4022  -1.9246  -1.7215   3.4052   3.7133   5.7400   6.5910
     7.7198   8.2833

     occupation numbers 
     1.0000   1.0000   1.0000   1.0000   1.0000   1.0000   1.0000   1.0000
     1.0000   1.0000   1.0000   1.0000   1.0000   1.0000   1.0000   1.0000
     1.0000   1.0000

          k = 0.3571 0.4536-0.0768 (  2415 PWs)   bands (ev):

    -5.2697  -5.1809  -3.7005  -3.5939  -3.5309  -3.4995  -3.4935  -3.4536
    -3.4152  -3.3900  -2.0484  -1.5694   3.6786   4.4019   5.3023   6.4231
     7.3413   7.6057

     occupation numbers 
     1.0000   1.0000   1.0000   1.0000   1.0000   1.0000   1.0000   1.0000
     1.0000   1.0000   1.0000   1.0000   1.0000   1.0000   1.0000   1.0000
     1.0000   1.0000

          k = 0.3571 0.6186 0.0768 (  2414 PWs)   bands (ev):

    -5.2279  -5.1943  -3.7115  -3.5566  -3.5301  -3.5025  -3.4787  -3.4592
    -3.4352  -3.4012  -1.8126  -1.6221   4.0069   4.3416   4.7079   6.7767
     6.9497   7.2514

     occupation numbers 
     1.0000   1.0000   1.0000   1.0000   1.0000   1.0000   1.0000   1.0000
     1.0000   1.0000   1.0000   1.0000   1.0000   1.0000   1.0000   1.0000
     1.0000   1.0000

          k = 0.3571 0.6186 0.2305 (  2406 PWs)   bands (ev):

    -5.1853  -5.1715  -3.6390  -3.6012  -3.5933  -3.5378  -3.4554  -3.4484
    -3.4263  -3.4229  -1.7534  -1.6719   3.5815   3.7086   5.2095   6.1293
     7.9384   8.1645

     occupation numbers 
     1.0000   1.0000   1.0000   1.0000   1.0000   1.0000   1.0000   1.0000
     1.0000   1.0000   1.0000   1.0000   1.0000   1.0000   1.0000   1.0000
     1.0000   1.0000

          k = 0.3571 0.6186-0.2305 (  2406 PWs)   bands (ev):

    -5.1853  -5.1715  -3.6390  -3.6012  -3.5933  -3.5378  -3.4554  -3.4484
    -3.4263  -3.4229  -1.7534  -1.6719   3.5815   3.7086   5.2095   6.1293
     7.9384   8.1645

     occupation numbers 
     1.0000   1.0000   1.0000   1.0000   1.0000   1.0000   1.0000   1.0000
     1.0000   1.0000   1.0000   1.0000   1.0000   1.0000   1.0000   1.0000
     1.0000   1.0000

          k = 0.3571 0.6186-0.0768 (  2414 PWs)   bands (ev):

    -5.2279  -5.1943  -3.7115  -3.5566  -3.5301  -3.5025  -3.4787  -3.4592
    -3.4352  -3.4012  -1.8126  -1.6221   4.0069   4.3416   4.7079   6.7767
     6.9497   7.2514

     occupation numbers 
     1.0000   1.0000   1.0000   1.0000   1.0000   1.0000   1.0000   1.0000
     1.0000   1.0000   1.0000   1.0000   1.0000   1.0000   1.0000   1.0000
     1.0000   1.0000

          k = 0.3571-0.3712 0.0768 (  2415 PWs)   bands (ev):

    -5.3262  -5.1778  -3.6823  -3.6297  -3.5424  -3.5113  -3.4916  -3.4526
    -3.4013  -3.3746  -2.3546  -1.5652   3.5134   4.5204   5.7258   6.3943
     7.8358   8.0417

     occupation numbers 
     1.0000   1.0000   1.0000   1.0000   1.0000   1.0000   1.0000   1.0000
     1.0000   1.0000   1.0000   1.0000   1.0000   1.0000   1.0000   1.0000
     1.0000   1.0000

          k = 0.3571-0.3712 0.2305 (  2418 PWs)   bands (ev):

    -5.2450  -5.1840  -3.6581  -3.6254  -3.6035  -3.5319  -3.4777  -3.4457
    -3.3960  -3.3871  -2.1751  -1.8465   3.3464   3.7959   6.4613   7.2560
     7.5165   8.3516

     occupation numbers 
     1.0000   1.0000   1.0000   1.0000   1.0000   1.0000   1.0000   1.0000
     1.0000   1.0000   1.0000   1.0000   1.0000   1.0000   1.0000   1.0000
     1.0000   1.0000

          k = 0.3571-0.3712-0.2305 (  2418 PWs)   bands (ev):

    -5.2450  -5.1840  -3.6581  -3.6254  -3.6035  -3.5319  -3.4777  -3.4456
    -3.3961  -3.3870  -2.1751  -1.8465   3.3464   3.7959   6.4613   7.2559
     7.5165   8.3516

     occupation numbers 
     1.0000   1.0000   1.0000   1.0000   1.0000   1.0000   1.0000   1.0000
     1.0000   1.0000   1.0000   1.0000   1.0000   1.0000   1.0000   1.0000
     1.0000   1.0000

          k = 0.3571-0.3712-0.0768 (  2415 PWs)   bands (ev):

    -5.3262  -5.1778  -3.6823  -3.6297  -3.5425  -3.5113  -3.4916  -3.4527
    -3.4013  -3.3746  -2.3546  -1.5652   3.5134   4.5205   5.7258   6.3942
     7.8358   8.0417

     occupation numbers 
     1.0000   1.0000   1.0000   1.0000   1.0000   1.0000   1.0000   1.0000
     1.0000   1.0000   1.0000   1.0000   1.0000   1.0000   1.0000   1.0000
     1.0000   1.0000

          k = 0.3571-0.2062 0.0768 (  2417 PWs)   bands (ev):

    -5.4588  -5.1921  -3.6725  -3.6439  -3.5718  -3.5180  -3.5047  -3.4610
    -3.4154  -3.3583  -2.9022  -1.6409   3.6702   4.9378   5.5944   7.3168
     8.3921   8.8476

     occupation numbers 
     1.0000   1.0000   1.0000   1.0000   1.0000   1.0000   1.0000   1.0000
     1.0000   1.0000   1.0000   1.0000   1.0000   1.0000   1.0000   1.0000
     1.0000   1.0000

          k = 0.3571-0.2062 0.2305 (  2424 PWs)   bands (ev):

    -5.3327  -5.2229  -3.6774  -3.6359  -3.6007  -3.5418  -3.4902  -3.4520
    -3.4035  -3.3808  -2.6608  -2.1571   3.7458   4.3839   6.8904   7.7223
     8.2764   8.3506

     occupation numbers 
     1.0000   1.0000   1.0000   1.0000   1.0000   1.0000   1.0000   1.0000
     1.0000   1.0000   1.0000   1.0000   1.0000   1.0000   1.0000   1.0000
     1.0000   1.0000

          k = 0.3571-0.2062-0.2305 (  2424 PWs)   bands (ev):

    -5.3327  -5.2229  -3.6774  -3.6359  -3.6007  -3.5418  -3.4901  -3.4521
    -3.4036  -3.3808  -2.6608  -2.1571   3.7457   4.3840   6.8905   7.7223
     8.2764   8.3506

     occupation numbers 
     1.0000   1.0000   1.0000   1.0000   1.0000   1.0000   1.0000   1.0000
     1.0000   1.0000   1.0000   1.0000   1.0000   1.0000   1.0000   1.0000
     1.0000   1.0000

          k = 0.3571-0.2062-0.0768 (  2417 PWs)   bands (ev):

    -5.4588  -5.1921  -3.6725  -3.6439  -3.5718  -3.5179  -3.5047  -3.4611
    -3.4154  -3.3583  -2.9022  -1.6409   3.6702   4.9378   5.5944   7.3168
     8.3921   8.8476

     occupation numbers 
     1.0000   1.0000   1.0000   1.0000   1.0000   1.0000   1.0000   1.0000
     1.0000   1.0000   1.0000   1.0000   1.0000   1.0000   1.0000   1.0000
     1.0000   1.0000

          k = 0.3571-0.0412 0.0768 (  2422 PWs)   bands (ev):

    -5.5467  -5.2069  -3.6699  -3.6481  -3.5802  -3.5569  -3.4992  -3.4688
    -3.4264  -3.3895  -3.1182  -1.7068   3.8768   5.5287   5.8718   7.0918
     8.5184   8.7580

     occupation numbers 
     1.0000   1.0000   1.0000   1.0000   1.0000   1.0000   1.0000   1.0000
     1.0000   1.0000   1.0000   1.0000   1.0000   1.0000   1.0000   1.0000
     1.0000   1.0000

          k = 0.3571-0.0412 0.2305 (  2430 PWs)   bands (ev):

    -5.3915  -5.2513  -3.6511  -3.6322  -3.6112  -3.5837  -3.5027  -3.4923
    -3.4057  -3.3976  -2.8721  -2.3223   4.3303   5.0736   6.9483   7.3372
     7.9639   8.4643

     occupation numbers 
     1.0000   1.0000   1.0000   1.0000   1.0000   1.0000   1.0000   1.0000
     1.0000   1.0000   1.0000   1.0000   1.0000   1.0000   1.0000   1.0000
     1.0000   1.0000

          k = 0.3571-0.0412-0.2305 (  2430 PWs)   bands (ev):

    -5.3915  -5.2513  -3.6510  -3.6323  -3.6112  -3.5836  -3.5027  -3.4923
    -3.4058  -3.3976  -2.8721  -2.3223   4.3303   5.0736   6.9484   7.3372
     7.9639   8.4643

     occupation numbers 
     1.0000   1.0000   1.0000   1.0000   1.0000   1.0000   1.0000   1.0000
     1.0000   1.0000   1.0000   1.0000   1.0000   1.0000   1.0000   1.0000
     1.0000   1.0000

          k = 0.3571-0.0412-0.0768 (  2422 PWs)   bands (ev):

    -5.5467  -5.2069  -3.6699  -3.6481  -3.5803  -3.5569  -3.4991  -3.4688
    -3.4264  -3.3895  -3.1182  -1.7068   3.8768   5.5287   5.8718   7.0918
     8.5184   8.7580

     occupation numbers 
     1.0000   1.0000   1.0000   1.0000   1.0000   1.0000   1.0000   1.0000
     1.0000   1.0000   1.0000   1.0000   1.0000   1.0000   1.0000   1.0000
     1.0000   1.0000

          k = 0.3571 0.1237 0.0768 (  2421 PWs)   bands (ev):

    -5.5146  -5.2013  -3.6666  -3.6533  -3.5770  -3.5275  -3.5080  -3.4699
    -3.4257  -3.3691  -3.0542  -1.6826   3.8171   5.1538   5.8273   7.2510
     8.5989   8.7752

     occupation numbers 
     1.0000   1.0000   1.0000   1.0000   1.0000   1.0000   1.0000   1.0000
     1.0000   1.0000   1.0000   1.0000   1.0000   1.0000   1.0000   1.0000
     1.0000   1.0000

          k = 0.3571 0.1237 0.2305 (  2424 PWs)   bands (ev):

    -5.3700  -5.2409  -3.6674  -3.6318  -3.6102  -3.5597  -3.4963  -3.4737
    -3.4086  -3.3883  -2.8055  -2.2666   4.0834   4.7830   6.8490   7.6394
     8.1562   8.4423

     occupation numbers 
     1.0000   1.0000   1.0000   1.0000   1.0000   1.0000   1.0000   1.0000
     1.0000   1.0000   1.0000   1.0000   1.0000   1.0000   1.0000   1.0000
     1.0000   1.0000

          k = 0.3571 0.1237-0.2305 (  2424 PWs)   bands (ev):

    -5.3700  -5.2409  -3.6674  -3.6317  -3.6102  -3.5597  -3.4964  -3.4737
    -3.4085  -3.3883  -2.8055  -2.2666   4.0834   4.7830   6.8489   7.6395
     8.1561   8.4424

     occupation numbers 
     1.0000   1.0000   1.0000   1.0000   1.0000   1.0000   1.0000   1.0000
     1.0000   1.0000   1.0000   1.0000   1.0000   1.0000   1.0000   1.0000
     1.0000   1.0000

          k = 0.3571 0.1237-0.0768 (  2421 PWs)   bands (ev):

    -5.5146  -5.2013  -3.6666  -3.6533  -3.5769  -3.5275  -3.5081  -3.4698
    -3.4257  -3.3691  -3.0542  -1.6826   3.8172   5.1538   5.8273   7.2510
     8.5989   8.7752

     occupation numbers 
     1.0000   1.0000   1.0000   1.0000   1.0000   1.0000   1.0000   1.0000
     1.0000   1.0000   1.0000   1.0000   1.0000   1.0000   1.0000   1.0000
     1.0000   1.0000

          k =-0.5000-0.2062 0.0768 (  2409 PWs)   bands (ev):

    -5.3322  -5.1755  -3.6745  -3.6446  -3.5451  -3.5298  -3.4773  -3.4394
    -3.3892  -3.3577  -2.2723  -1.6669   3.2690   4.3503   5.7824   6.8464
     7.7617   8.4614

     occupation numbers 
     1.0000   1.0000   1.0000   1.0000   1.0000   1.0000   1.0000   1.0000
     1.0000   1.0000   1.0000   1.0000   1.0000   1.0000   1.0000   1.0000
     1.0000   1.0000

          k =-0.5000-0.2062 0.2305 (  2410 PWs)   bands (ev):

    -5.2494  -5.1847  -3.6792  -3.6373  -3.5950  -3.5207  -3.4745  -3.4243
    -3.3850  -3.3756  -2.1335  -1.8784   3.0898   3.5514   6.9570   7.4977
     7.8092   8.2875

     occupation numbers 
     1.0000   1.0000   1.0000   1.0000   1.0000   1.0000   1.0000   1.0000
     1.0000   1.0000   1.0000   1.0000   1.0000   1.0000   1.0000   1.0000
     1.0000   1.0000

          k =-0.5000-0.2062-0.2305 (  2410 PWs)   bands (ev):

    -5.2494  -5.1847  -3.6792  -3.6373  -3.5950  -3.5207  -3.4745  -3.4243
    -3.3851  -3.3756  -2.1335  -1.8784   3.0898   3.5515   6.9570   7.4977
     7.8093   8.2875

     occupation numbers 
     1.0000   1.0000   1.0000   1.0000   1.0000   1.0000   1.0000   1.0000
     1.0000   1.0000   1.0000   1.0000   1.0000   1.0000   1.0000   1.0000
     1.0000   1.0000

          k =-0.5000-0.2062-0.0768 (  2409 PWs)   bands (ev):

    -5.3322  -5.1755  -3.6745  -3.6446  -3.5451  -3.5298  -3.4773  -3.4394
    -3.3893  -3.3577  -2.2723  -1.6669   3.2690   4.3503   5.7824   6.8464
     7.7617   8.4614

     occupation numbers 
     1.0000   1.0000   1.0000   1.0000   1.0000   1.0000   1.0000   1.0000
     1.0000   1.0000   1.0000   1.0000   1.0000   1.0000   1.0000   1.0000
     1.0000   1.0000

          k =-0.5000-0.0412 0.0768 (  2415 PWs)   bands (ev):

    -5.3210  -5.1800  -3.6937  -3.6002  -3.5398  -3.5180  -3.4897  -3.4700
    -3.4065  -3.3911  -2.4045  -1.5001   3.8171   4.5699   5.7212   6.0400
     7.5885   7.9850

     occupation numbers 
     1.0000   1.0000   1.0000   1.0000   1.0000   1.0000   1.0000   1.0000
     1.0000   1.0000   1.0000   1.0000   1.0000   1.0000   1.0000   1.0000
     1.0000   1.0000

          k =-0.5000-0.0412 0.2305 (  2420 PWs)   bands (ev):

    -5.2412  -5.1835  -3.6380  -3.6253  -3.5917  -3.5453  -3.4859  -3.4710
    -3.4044  -3.3909  -2.2012  -1.8279   3.6211   4.0146   6.0528   6.8329
     7.4876   8.3875

     occupation numbers 
     1.0000   1.0000   1.0000   1.0000   1.0000   1.0000   1.0000   1.0000
     1.0000   1.0000   1.0000   1.0000   1.0000   1.0000   1.0000   1.0000
     1.0000   1.0000

          k =-0.5000-0.0412-0.2305 (  2420 PWs)   bands (ev):

    -5.2412  -5.1835  -3.6380  -3.6253  -3.5918  -3.5452  -3.4859  -3.4710
    -3.4045  -3.3908  -2.2012  -1.8279   3.6210   4.0146   6.0528   6.8329
     7.4876   8.3875

     occupation numbers 
     1.0000   1.0000   1.0000   1.0000   1.0000   1.0000   1.0000   1.0000
     1.0000   1.0000   1.0000   1.0000   1.0000   1.0000   1.0000   1.0000
     1.0000   1.0000

          k =-0.5000-0.0412-0.0768 (  2415 PWs)   bands (ev):

    -5.3210  -5.1800  -3.6937  -3.6002  -3.5399  -3.5179  -3.4896  -3.4701
    -3.4065  -3.3911  -2.4045  -1.5001   3.8171   4.5699   5.7213   6.0399
     7.5885   7.9850

     occupation numbers 
     1.0000   1.0000   1.0000   1.0000   1.0000   1.0000   1.0000   1.0000
     1.0000   1.0000   1.0000   1.0000   1.0000   1.0000   1.0000   1.0000
     1.0000   1.0000

          k =-0.5000 0.1237 0.0768 (  2415 PWs)   bands (ev):

    -5.3262  -5.1778  -3.6823  -3.6297  -3.5425  -3.5113  -3.4916  -3.4527
    -3.4013  -3.3746  -2.3546  -1.5652   3.5134   4.5205   5.7258   6.3942
     7.8358   8.0417

     occupation numbers 
     1.0000   1.0000   1.0000   1.0000   1.0000   1.0000   1.0000   1.0000
     1.0000   1.0000   1.0000   1.0000   1.0000   1.0000   1.0000   1.0000
     1.0000   1.0000

          k =-0.5000 0.1237 0.2305 (  2418 PWs)   bands (ev):

    -5.2450  -5.1840  -3.6581  -3.6254  -3.6035  -3.5319  -3.4777  -3.4456
    -3.3961  -3.3870  -2.1751  -1.8465   3.3464   3.7959   6.4613   7.2559
     7.5165   8.3516

     occupation numbers 
     1.0000   1.0000   1.0000   1.0000   1.0000   1.0000   1.0000   1.0000
     1.0000   1.0000   1.0000   1.0000   1.0000   1.0000   1.0000   1.0000
     1.0000   1.0000

          k =-0.5000 0.1237-0.2305 (  2418 PWs)   bands (ev):

    -5.2450  -5.1840  -3.6581  -3.6254  -3.6035  -3.5319  -3.4777  -3.4457
    -3.3960  -3.3871  -2.1751  -1.8465   3.3464   3.7959   6.4613   7.2560
     7.5165   8.3516

     occupation numbers 
     1.0000   1.0000   1.0000   1.0000   1.0000   1.0000   1.0000   1.0000
     1.0000   1.0000   1.0000   1.0000   1.0000   1.0000   1.0000   1.0000
     1.0000   1.0000

          k =-0.5000 0.1237-0.0768 (  2415 PWs)   bands (ev):

    -5.3262  -5.1778  -3.6823  -3.6297  -3.5424  -3.5113  -3.4916  -3.4526
    -3.4013  -3.3746  -2.3546  -1.5652   3.5134   4.5204   5.7258   6.3943
     7.8358   8.0417

     occupation numbers 
     1.0000   1.0000   1.0000   1.0000   1.0000   1.0000   1.0000   1.0000
     1.0000   1.0000   1.0000   1.0000   1.0000   1.0000   1.0000   1.0000
     1.0000   1.0000

          k =-0.5000-0.8660 0.0768 (  2402 PWs)   bands (ev):

    -5.3348  -5.1746  -3.6775  -3.6414  -3.5444  -3.5407  -3.4722  -3.4358
    -3.3823  -3.3510  -2.2230  -1.7249   3.1831   4.2685   5.8121   7.0485
     7.7217   8.6576

     occupation numbers 
     1.0000   1.0000   1.0000   1.0000   1.0000   1.0000   1.0000   1.0000
     1.0000   1.0000   1.0000   1.0000   1.0000   1.0000   1.0000   1.0000
     1.0000   1.0000

          k =-0.5000-0.8660 0.2305 (  2412 PWs)   bands (ev):

    -5.2514  -5.1850  -3.6873  -3.6433  -3.5888  -3.5163  -3.4749  -3.4186
    -3.3790  -3.3685  -2.1095  -1.8980   2.9932   3.4521   7.2053   7.4722
     8.1318   8.1687

     occupation numbers 
     1.0000   1.0000   1.0000   1.0000   1.0000   1.0000   1.0000   1.0000
     1.0000   1.0000   1.0000   1.0000   1.0000   1.0000   1.0000   1.0000
     1.0000   1.0000

     highest occupied level (ev):     9.6414

!    total energy              =    -383.12707690 Ry
     estimated scf accuracy    <          3.1E-15 Ry

     The total energy is the sum of the following terms:
     one-electron contribution =    -179.18739673 Ry
     hartree contribution      =     128.09588509 Ry
     xc contribution           =     -98.86417202 Ry
     ewald contribution        =    -233.17139324 Ry

     convergence has been achieved in  22 iterations

     Forces acting on atoms (cartesian axes, Ry/au):

     atom    1 type  1   force =    -0.00000217    0.00000126    0.00002432
     atom    2 type  1   force =     0.00000216   -0.00000125   -0.00000545
     atom    3 type  2   force =     0.00000209   -0.00000121   -0.00004057
     atom    4 type  2   force =    -0.00000208    0.00000120    0.00002169
     The non-local contrib.  to forces
     atom    1 type  1   force =     0.00018326   -0.00010581   -0.00393985
     atom    2 type  1   force =    -0.00018331    0.00010584   -0.00401786
     atom    3 type  2   force =     0.00014346   -0.00008283    0.01130147
     atom    4 type  2   force =    -0.00014346    0.00008283    0.01138498
     The ionic contribution  to forces
     atom    1 type  1   force =    -0.00031072    0.00017939    0.13428895
     atom    2 type  1   force =     0.00031051   -0.00017927    0.13165552
     atom    3 type  2   force =    -0.00005720    0.00003305   -0.13366221
     atom    4 type  2   force =     0.00005742   -0.00003318   -0.13228227
     The local contribution  to forces
     atom    1 type  1   force =     0.00012919   -0.00007458   -0.13068079
     atom    2 type  1   force =    -0.00012895    0.00007444   -0.12800406
     atom    3 type  2   force =    -0.00008151    0.00004704    0.12249905
     atom    4 type  2   force =     0.00008131   -0.00004692    0.12109975
     The core correction contribution to forces
     atom    1 type  1   force =    -0.00000390    0.00000225    0.00035633
     atom    2 type  1   force =     0.00000391   -0.00000226    0.00036134
     atom    3 type  2   force =    -0.00000265    0.00000153   -0.00017851
     atom    4 type  2   force =     0.00000265   -0.00000153   -0.00018043
     The Hubbard contrib.    to forces
     atom    1 type  1   force =     0.00000000    0.00000000    0.00000000
     atom    2 type  1   force =     0.00000000    0.00000000    0.00000000
     atom    3 type  2   force =     0.00000000    0.00000000    0.00000000
     atom    4 type  2   force =     0.00000000    0.00000000    0.00000000
     The SCF correction term to forces
     atom    1 type  1   force =    -0.00000000    0.00000000    0.00000000
     atom    2 type  1   force =    -0.00000000   -0.00000000   -0.00000004
     atom    3 type  2   force =     0.00000000   -0.00000000   -0.00000002
     atom    4 type  2   force =     0.00000000   -0.00000000    0.00000002

     Total force =     0.000047     Total SCF correction =     0.000000


     Computing stress (Cartesian axis) and pressure

          total   stress  (Ry/bohr**3)                   (kbar)     P=       47.94
   0.00031438   0.00000091  -0.00000000           46.25        0.13       -0.00
   0.00000091   0.00031543   0.00000000            0.13       46.40        0.00
  -0.00000000   0.00000000   0.00034783           -0.00        0.00       51.17

     kinetic stress (kbar)  20917.90      0.62      0.00
                                0.62  20918.61     -0.00
                                0.00     -0.00  20938.61

     local   stress (kbar)   7063.78     -1.38      0.00
                               -1.38   7062.19     -0.00
                                0.00     -0.00   5149.86

     nonloc. stress (kbar)   -966.14      0.01     -0.00
                                0.01   -966.13      0.00
                               -0.00      0.00   -976.41

     hartree stress (kbar)  20066.08      0.37     -0.00
                                0.37  20066.51      0.00
                               -0.00      0.00  20929.34

     exc-cor stress (kbar)   9514.55      0.01     -0.00
                                0.01   9514.56      0.00
                               -0.00      0.00   9514.94

     corecor stress (kbar) -19151.55     -0.01      0.00
                               -0.01 -19151.56     -0.00
                                0.00     -0.00 -19151.03

     ewald   stress (kbar) -37398.38      0.52     -0.00
                                0.52 -37397.78      0.00
                               -0.00      0.00 -36354.15

     hubbard stress (kbar)      0.00      0.00      0.00
                                0.00      0.00      0.00
                                0.00      0.00      0.00

     DFT-D   stress (kbar)      0.00      0.00      0.00
                                0.00      0.00      0.00
                                0.00      0.00      0.00

     XDM     stress (kbar)      0.00      0.00      0.00
                                0.00      0.00      0.00
                                0.00      0.00      0.00

     dft-nl  stress (kbar)      0.00      0.00      0.00
                                0.00      0.00      0.00
                                0.00      0.00      0.00

     TS-vdW  stress (kbar)      0.00      0.00      0.00
                                0.00      0.00      0.00
                                0.00      0.00      0.00



     BFGS Geometry Optimization
     Energy error            =      0.0E+00
     Gradient error          =      4.1E-05
     Cell gradient error     =      3.5E-04


     number of scf cycles    =   1
     number of bfgs steps    =   0

     enthalpy new            =    -383.1270769024 Ry

     new trust radius        =       0.0305511856 bohr
     new conv_thr            =            1.0E-14 Ry

     new unit-cell volume =    316.20137 a.u.^3 (    46.85621 Ang^3 )
     density =      5.93460 g/cm^3

CELL_PARAMETERS (alat=  6.02822634)
   1.007859463   0.000022854  -0.000000002
  -0.503909939   0.872843325   0.000000002
  -0.000000003   0.000000002   1.640790507

ATOMIC_POSITIONS (crystal)
Ga            0.6666616710        0.3333383266        0.0000000000    1   1   0
Ga            0.3333383311        0.6666616712        0.5000035979
N             0.6666763799        0.3333236223        0.3768993626
N             0.3333236180        0.6666763798        0.8768932561



     Writing output data file ./gan_wz/gan_wz.save/
     NEW-OLD atomic charge density approx. for the potential

     Check: negative core charge=   -0.000003
     extrapolated charge   36.86558, renormalised to   36.00000

     total cpu time spent up to now is      138.3 secs

     Self-consistent Calculation

     iteration #  1     ecut=    60.00 Ry     beta= 0.70
     Davidson diagonalization with overlap
     ethr =  1.00E-06,  avg # of iterations =  8.2

     total cpu time spent up to now is      155.2 secs

     total energy              =    -382.89451254 Ry
     estimated scf accuracy    <       0.15513013 Ry

     iteration #  2     ecut=    60.00 Ry     beta= 0.70
     Davidson diagonalization with overlap
     ethr =  4.31E-04,  avg # of iterations =  3.0

     total cpu time spent up to now is      163.1 secs

     total energy              =    -383.12530436 Ry
     estimated scf accuracy    <       0.36475030 Ry

     iteration #  3     ecut=    60.00 Ry     beta= 0.70
     Davidson diagonalization with overlap
     ethr =  4.31E-04,  avg # of iterations =  2.0

     total cpu time spent up to now is      169.4 secs

     total energy              =    -383.13582175 Ry
     estimated scf accuracy    <       0.06401697 Ry

     iteration #  4     ecut=    60.00 Ry     beta= 0.70
     Davidson diagonalization with overlap
     ethr =  1.78E-04,  avg # of iterations =  1.0

     total cpu time spent up to now is      174.2 secs

     total energy              =    -383.13257657 Ry
     estimated scf accuracy    <       0.02520608 Ry

     iteration #  5     ecut=    60.00 Ry     beta= 0.70
     Davidson diagonalization with overlap
     ethr =  7.00E-05,  avg # of iterations =  1.0

     total cpu time spent up to now is      179.0 secs

     total energy              =    -383.12758165 Ry
     estimated scf accuracy    <       0.01263445 Ry

     iteration #  6     ecut=    60.00 Ry     beta= 0.70
     Davidson diagonalization with overlap
     ethr =  3.51E-05,  avg # of iterations =  2.0

     total cpu time spent up to now is      185.2 secs

     total energy              =    -383.12866425 Ry
[...]
     8.0502   8.4926

     occupation numbers 
     1.0000   1.0000   1.0000   1.0000   1.0000   1.0000   1.0000   1.0000
     1.0000   1.0000   1.0000   1.0000   1.0000   1.0000   1.0000   1.0000
     1.0000   1.0000

          k = 0.3543-0.2046 0.2283 (  2485 PWs)   bands (ev):

    -5.5799  -5.4860  -4.0443  -4.0055  -3.9751  -3.9208  -3.8717  -3.8368
    -3.7934  -3.7725  -3.0194  -2.5299   3.4700   4.0836   6.5787   7.4075
     7.9300   8.0134

     occupation numbers 
     1.0000   1.0000   1.0000   1.0000   1.0000   1.0000   1.0000   1.0000
     1.0000   1.0000   1.0000   1.0000   1.0000   1.0000   1.0000   1.0000
     1.0000   1.0000

          k = 0.3543-0.2046-0.2283 (  2485 PWs)   bands (ev):

    -5.5799  -5.4860  -4.0442  -4.0056  -3.9751  -3.9208  -3.8716  -3.8369
    -3.7935  -3.7724  -3.0194  -2.5299   3.4700   4.0837   6.5787   7.4075
     7.9300   8.0134

     occupation numbers 
     1.0000   1.0000   1.0000   1.0000   1.0000   1.0000   1.0000   1.0000
     1.0000   1.0000   1.0000   1.0000   1.0000   1.0000   1.0000   1.0000
     1.0000   1.0000

          k = 0.3543-0.2046-0.0761 (  2490 PWs)   bands (ev):

    -5.6918  -5.4622  -4.0405  -4.0150  -3.9466  -3.8982  -3.8868  -3.8462
    -3.8043  -3.7518  -3.2582  -2.0391   3.3992   4.6470   5.2997   7.0165
     8.0502   8.4926

     occupation numbers 
     1.0000   1.0000   1.0000   1.0000   1.0000   1.0000   1.0000   1.0000
     1.0000   1.0000   1.0000   1.0000   1.0000   1.0000   1.0000   1.0000
     1.0000   1.0000

          k = 0.3543-0.0409 0.0761 (  2488 PWs)   bands (ev):

    -5.7681  -5.4749  -4.0385  -4.0191  -3.9556  -3.9334  -3.8817  -3.8528
    -3.8143  -3.7784  -3.4771  -2.1042   3.5991   5.2367   5.5614   6.7835
     8.1721   8.4042

     occupation numbers 
     1.0000   1.0000   1.0000   1.0000   1.0000   1.0000   1.0000   1.0000
     1.0000   1.0000   1.0000   1.0000   1.0000   1.0000   1.0000   1.0000
     1.0000   1.0000

          k = 0.3543-0.0409 0.2283 (  2488 PWs)   bands (ev):

    -5.6298  -5.5098  -4.0210  -4.0033  -3.9843  -3.9585  -3.8824  -3.8730
    -3.7954  -3.7879  -3.2299  -2.6904   4.0259   4.7465   6.6419   7.0307
     7.6368   8.1138

     occupation numbers 
     1.0000   1.0000   1.0000   1.0000   1.0000   1.0000   1.0000   1.0000
     1.0000   1.0000   1.0000   1.0000   1.0000   1.0000   1.0000   1.0000
     1.0000   1.0000

          k = 0.3543-0.0409-0.2283 (  2488 PWs)   bands (ev):

    -5.6298  -5.5098  -4.0208  -4.0034  -3.9845  -3.9584  -3.8824  -3.8730
    -3.7955  -3.7878  -3.2299  -2.6904   4.0259   4.7465   6.6419   7.0306
     7.6369   8.1138

     occupation numbers 
     1.0000   1.0000   1.0000   1.0000   1.0000   1.0000   1.0000   1.0000
     1.0000   1.0000   1.0000   1.0000   1.0000   1.0000   1.0000   1.0000
     1.0000   1.0000

          k = 0.3543-0.0409-0.0761 (  2488 PWs)   bands (ev):

    -5.7681  -5.4749  -4.0385  -4.0190  -3.9557  -3.9333  -3.8816  -3.8528
    -3.8143  -3.7784  -3.4771  -2.1042   3.5991   5.2368   5.5613   6.7835
     8.1722   8.4041

     occupation numbers 
     1.0000   1.0000   1.0000   1.0000   1.0000   1.0000   1.0000   1.0000
     1.0000   1.0000   1.0000   1.0000   1.0000   1.0000   1.0000   1.0000
     1.0000   1.0000

          k = 0.3543 0.1227 0.0761 (  2491 PWs)   bands (ev):

    -5.7402  -5.4701  -4.0352  -4.0238  -3.9516  -3.9075  -3.8893  -3.8538
    -3.8138  -3.7613  -3.4107  -2.0806   3.5394   4.8744   5.5089   6.9511
     8.2500   8.4222

     occupation numbers 
     1.0000   1.0000   1.0000   1.0000   1.0000   1.0000   1.0000   1.0000
     1.0000   1.0000   1.0000   1.0000   1.0000   1.0000   1.0000   1.0000
     1.0000   1.0000

          k = 0.3543 0.1227 0.2283 (  2489 PWs)   bands (ev):

    -5.6116  -5.5011  -4.0353  -4.0021  -3.9838  -3.9371  -3.8769  -3.8562
    -3.7981  -3.7794  -3.1629  -2.6363   3.7909   4.4669   6.5412   7.3267
     7.8203   8.0961

     occupation numbers 
     1.0000   1.0000   1.0000   1.0000   1.0000   1.0000   1.0000   1.0000
     1.0000   1.0000   1.0000   1.0000   1.0000   1.0000   1.0000   1.0000
     1.0000   1.0000

          k = 0.3543 0.1227-0.2283 (  2489 PWs)   bands (ev):

    -5.6116  -5.5011  -4.0354  -4.0020  -3.9837  -3.9372  -3.8770  -3.8562
    -3.7980  -3.7795  -3.1629  -2.6363   3.7909   4.4668   6.5413   7.3268
     7.8201   8.0962

     occupation numbers 
     1.0000   1.0000   1.0000   1.0000   1.0000   1.0000   1.0000   1.0000
     1.0000   1.0000   1.0000   1.0000   1.0000   1.0000   1.0000   1.0000
     1.0000   1.0000

          k = 0.3543 0.1227-0.0761 (  2491 PWs)   bands (ev):

    -5.7402  -5.4701  -4.0353  -4.0238  -3.9514  -3.9076  -3.8895  -3.8537
    -3.8137  -3.7613  -3.4107  -2.0806   3.5394   4.8743   5.5090   6.9511
     8.2499   8.4223

     occupation numbers 
     1.0000   1.0000   1.0000   1.0000   1.0000   1.0000   1.0000   1.0000
     1.0000   1.0000   1.0000   1.0000   1.0000   1.0000   1.0000   1.0000
     1.0000   1.0000

          k =-0.4961-0.2045 0.0761 (  2473 PWs)   bands (ev):

    -5.5834  -5.4477  -4.0418  -4.0158  -3.9226  -3.9091  -3.8616  -3.8266
    -3.7800  -3.7510  -2.6491  -2.0552   3.0128   4.0548   5.5022   6.5612
     7.4405   8.1173

     occupation numbers 
     1.0000   1.0000   1.0000   1.0000   1.0000   1.0000   1.0000   1.0000
     1.0000   1.0000   1.0000   1.0000   1.0000   1.0000   1.0000   1.0000
     1.0000   1.0000

          k =-0.4961-0.2045 0.2283 (  2475 PWs)   bands (ev):

    -5.5096  -5.4537  -4.0457  -4.0069  -3.9699  -3.9015  -3.8576  -3.8119
    -3.7761  -3.7674  -2.5118  -2.2620   2.8438   3.2866   6.6503   7.1816
     7.4854   7.9459

     occupation numbers 
     1.0000   1.0000   1.0000   1.0000   1.0000   1.0000   1.0000   1.0000
     1.0000   1.0000   1.0000   1.0000   1.0000   1.0000   1.0000   1.0000
     1.0000   1.0000

          k =-0.4961-0.2045-0.2283 (  2475 PWs)   bands (ev):

    -5.5096  -5.4537  -4.0457  -4.0070  -3.9699  -3.9015  -3.8576  -3.8119
    -3.7762  -3.7673  -2.5118  -2.2620   2.8438   3.2867   6.6503   7.1815
     7.4855   7.9459

     occupation numbers 
     1.0000   1.0000   1.0000   1.0000   1.0000   1.0000   1.0000   1.0000
     1.0000   1.0000   1.0000   1.0000   1.0000   1.0000   1.0000   1.0000
     1.0000   1.0000

          k =-0.4961-0.2045-0.0761 (  2473 PWs)   bands (ev):

    -5.5834  -5.4477  -4.0417  -4.0158  -3.9227  -3.9089  -3.8616  -3.8266
    -3.7800  -3.7510  -2.6491  -2.0552   3.0128   4.0549   5.5022   6.5612
     7.4405   8.1173

     occupation numbers 
     1.0000   1.0000   1.0000   1.0000   1.0000   1.0000   1.0000   1.0000
     1.0000   1.0000   1.0000   1.0000   1.0000   1.0000   1.0000   1.0000
     1.0000   1.0000

          k =-0.4961-0.0409 0.0761 (  2471 PWs)   bands (ev):

    -5.5715  -5.4515  -4.0603  -3.9743  -3.9185  -3.8987  -3.8726  -3.8546
    -3.7959  -3.7813  -2.7715  -1.9040   3.5422   4.2739   5.4435   5.7672
     7.2682   7.6547

     occupation numbers 
     1.0000   1.0000   1.0000   1.0000   1.0000   1.0000   1.0000   1.0000
     1.0000   1.0000   1.0000   1.0000   1.0000   1.0000   1.0000   1.0000
     1.0000   1.0000

          k =-0.4961-0.0409 0.2283 (  2479 PWs)   bands (ev):

    -5.5009  -5.4521  -4.0082  -3.9967  -3.9664  -3.9242  -3.8680  -3.8544
    -3.7938  -3.7816  -2.5739  -2.2154   3.3513   3.7268   5.7827   6.5398
     7.1633   8.0412

     occupation numbers 
     1.0000   1.0000   1.0000   1.0000   1.0000   1.0000   1.0000   1.0000
     1.0000   1.0000   1.0000   1.0000   1.0000   1.0000   1.0000   1.0000
     1.0000   1.0000

          k =-0.4961-0.0409-0.2283 (  2479 PWs)   bands (ev):

    -5.5009  -5.4521  -4.0081  -3.9967  -3.9665  -3.9242  -3.8680  -3.8544
    -3.7939  -3.7815  -2.5739  -2.2154   3.3513   3.7268   5.7827   6.5398
     7.1633   8.0412

     occupation numbers 
     1.0000   1.0000   1.0000   1.0000   1.0000   1.0000   1.0000   1.0000
     1.0000   1.0000   1.0000   1.0000   1.0000   1.0000   1.0000   1.0000
     1.0000   1.0000

          k =-0.4961-0.0409-0.0761 (  2471 PWs)   bands (ev):

    -5.5715  -5.4515  -4.0603  -3.9743  -3.9187  -3.8986  -3.8724  -3.8547
    -3.7959  -3.7813  -2.7715  -1.9040   3.5421   4.2739   5.4435   5.7671
     7.2683   7.6546

     occupation numbers 
     1.0000   1.0000   1.0000   1.0000   1.0000   1.0000   1.0000   1.0000
     1.0000   1.0000   1.0000   1.0000   1.0000   1.0000   1.0000   1.0000
     1.0000   1.0000

          k =-0.4961 0.1228 0.0761 (  2471 PWs)   bands (ev):

    -5.5770  -5.4496  -4.0495  -4.0016  -3.9207  -3.8920  -3.8747  -3.8388
    -3.7911  -3.7663  -2.7245  -1.9631   3.2519   4.2188   5.4487   6.1174
     7.5121   7.7060

     occupation numbers 
     1.0000   1.0000   1.0000   1.0000   1.0000   1.0000   1.0000   1.0000
     1.0000   1.0000   1.0000   1.0000   1.0000   1.0000   1.0000   1.0000
     1.0000   1.0000

          k =-0.4961 0.1228 0.2283 (  2480 PWs)   bands (ev):

    -5.5049  -5.4527  -4.0263  -3.9964  -3.9776  -3.9120  -3.8605  -3.8313
    -3.7863  -3.7779  -2.5495  -2.2325   3.0907   3.5198   6.1744   6.9471
     7.1936   8.0070

     occupation numbers 
     1.0000   1.0000   1.0000   1.0000   1.0000   1.0000   1.0000   1.0000
     1.0000   1.0000   1.0000   1.0000   1.0000   1.0000   1.0000   1.0000
     1.0000   1.0000

          k =-0.4961 0.1228-0.2283 (  2480 PWs)   bands (ev):

    -5.5049  -5.4527  -4.0264  -3.9964  -3.9776  -3.9120  -3.8605  -3.8313
    -3.7860  -3.7781  -2.5495  -2.2325   3.0907   3.5198   6.1744   6.9474
     7.1933   8.0070

     occupation numbers 
     1.0000   1.0000   1.0000   1.0000   1.0000   1.0000   1.0000   1.0000
     1.0000   1.0000   1.0000   1.0000   1.0000   1.0000   1.0000   1.0000
     1.0000   1.0000

          k =-0.4961 0.1228-0.0761 (  2471 PWs)   bands (ev):

    -5.5770  -5.4496  -4.0495  -4.0016  -3.9205  -3.8922  -3.8747  -3.8387
    -3.7911  -3.7663  -2.7245  -1.9631   3.2519   4.2188   5.4487   6.1174
     7.5119   7.7061

     occupation numbers 
     1.0000   1.0000   1.0000   1.0000   1.0000   1.0000   1.0000   1.0000
     1.0000   1.0000   1.0000   1.0000   1.0000   1.0000   1.0000   1.0000
     1.0000   1.0000

          k =-0.4960-0.8591 0.0761 (  2480 PWs)   bands (ev):

    -5.5862  -5.4469  -4.0446  -4.0128  -3.9219  -3.9190  -3.8569  -3.8233
    -3.7737  -3.7449  -2.6044  -2.1061   2.9287   3.9778   5.5307   6.7569
     7.4026   8.3083

     occupation numbers 
     1.0000   1.0000   1.0000   1.0000   1.0000   1.0000   1.0000   1.0000
     1.0000   1.0000   1.0000   1.0000   1.0000   1.0000   1.0000   1.0000
     1.0000   1.0000

          k =-0.4960-0.8591 0.2283 (  2462 PWs)   bands (ev):

    -5.5116  -5.4542  -4.0532  -4.0124  -3.9641  -3.8974  -3.8580  -3.8068
    -3.7705  -3.7608  -2.4898  -2.2789   2.7516   3.1930   6.8816   7.1655
     7.8015   7.8279

     occupation numbers 
     1.0000   1.0000   1.0000   1.0000   1.0000   1.0000   1.0000   1.0000
     1.0000   1.0000   1.0000   1.0000   1.0000   1.0000   1.0000   1.0000
     1.0000   1.0000

     highest occupied level (ev):     9.2633

!    total energy              =    -383.12864621 Ry
     estimated scf accuracy    <          3.1E-17 Ry

     The total energy is the sum of the following terms:
     one-electron contribution =    -182.26776804 Ry
     hartree contribution      =     129.13587949 Ry
     xc contribution           =     -98.79354297 Ry
     ewald contribution        =    -231.20321469 Ry

     convergence has been achieved in  27 iterations

     Forces acting on atoms (cartesian axes, Ry/au):

     atom    1 type  1   force =    -0.00000650    0.00000375    0.00005936
     atom    2 type  1   force =     0.00000651   -0.00000376   -0.00007962
     atom    3 type  2   force =    -0.00000202    0.00000117    0.00001806
     atom    4 type  2   force =     0.00000202   -0.00000117    0.00000220
     The non-local contrib.  to forces
     atom    1 type  1   force =     0.00036220   -0.00020911    0.00043991
     atom    2 type  1   force =    -0.00036216    0.00020909    0.00059324
     atom    3 type  2   force =     0.00005660   -0.00003268    0.01369651
     atom    4 type  2   force =    -0.00005653    0.00003264    0.01348007
     The ionic contribution  to forces
     atom    1 type  1   force =     0.00104371   -0.00060253    0.15862370
     atom    2 type  1   force =    -0.00104299    0.00060213    0.15206740
     atom    3 type  2   force =     0.00118332   -0.00068315   -0.15666773
     atom    4 type  2   force =    -0.00118404    0.00068355   -0.15402337
     The local contribution  to forces
     atom    1 type  1   force =    -0.00140352    0.00081026   -0.15919144
     atom    2 type  1   force =     0.00140276   -0.00080984   -0.15293461
     atom    3 type  2   force =    -0.00124038    0.00071609    0.14320129
     atom    4 type  2   force =     0.00124102   -0.00071645    0.14075425
     The core correction contribution to forces
     atom    1 type  1   force =    -0.00000890    0.00000514    0.00018728
     atom    2 type  1   force =     0.00000889   -0.00000513    0.00019443
     atom    3 type  2   force =    -0.00000157    0.00000090   -0.00021191
     atom    4 type  2   force =     0.00000156   -0.00000090   -0.00020866
     The Hubbard contrib.    to forces
     atom    1 type  1   force =     0.00000000    0.00000000    0.00000000
     atom    2 type  1   force =     0.00000000    0.00000000    0.00000000
     atom    3 type  2   force =     0.00000000    0.00000000    0.00000000
     atom    4 type  2   force =     0.00000000    0.00000000    0.00000000
     The SCF correction term to forces
     atom    1 type  1   force =    -0.00000000    0.00000000    0.00000000
     atom    2 type  1   force =    -0.00000000    0.00000000   -0.00000000
     atom    3 type  2   force =     0.00000000   -0.00000000   -0.00000000
     atom    4 type  2   force =    -0.00000000   -0.00000000    0.00000000

     Total force =     0.000082     Total SCF correction =     0.000000


     Computing stress (Cartesian axis) and pressure

          total   stress  (Ry/bohr**3)                   (kbar)     P=        0.91
   0.00000597   0.00000000   0.00000000            0.88        0.00        0.00
   0.00000000   0.00000598  -0.00000000            0.00        0.88       -0.00
   0.00000000  -0.00000000   0.00000664            0.00       -0.00        0.98

     kinetic stress (kbar)  20339.65      0.42      0.00
                                0.42  20340.13     -0.00
                                0.00     -0.00  20354.17

     local   stress (kbar)   6375.68     -2.05      0.00
                               -2.05   6373.31     -0.00
                                0.00     -0.00   4642.48

     nonloc. stress (kbar)   -943.50      0.06     -0.00
                                0.06   -943.42      0.00
                               -0.00      0.00   -953.06

     hartree stress (kbar)  19739.68      0.56     -0.00
                                0.56  19740.33      0.00
                               -0.00      0.00  20529.74

     exc-cor stress (kbar)   9284.41      0.01     -0.00
                                0.01   9284.43      0.00
                               -0.00      0.00   9284.73

     corecor stress (kbar) -18668.64     -0.01      0.00
                               -0.01 -18668.65     -0.00
                                0.00     -0.00 -18668.05

     ewald   stress (kbar) -36126.41      1.01     -0.00
                                1.01 -36125.24      0.00
                               -0.00      0.00 -35189.03

     hubbard stress (kbar)      0.00      0.00      0.00
                                0.00      0.00      0.00
                                0.00      0.00      0.00

     DFT-D   stress (kbar)      0.00      0.00      0.00
                                0.00      0.00      0.00
                                0.00      0.00      0.00

     XDM     stress (kbar)      0.00      0.00      0.00
                                0.00      0.00      0.00
                                0.00      0.00      0.00

     dft-nl  stress (kbar)      0.00      0.00      0.00
                                0.00      0.00      0.00
                                0.00      0.00      0.00

     TS-vdW  stress (kbar)      0.00      0.00      0.00
                                0.00      0.00      0.00
                                0.00      0.00      0.00



     Writing output data file ./gan_wz/gan_wz.save/

     init_run     :      8.41s CPU      8.60s WALL (       2 calls)
     electrons    :   1019.83s CPU   1046.75s WALL (       9 calls)
     update_pot   :      9.12s CPU      9.22s WALL (       7 calls)
     forces       :     14.94s CPU     15.47s WALL (       9 calls)
     stress       :     29.12s CPU     30.81s WALL (       9 calls)

     Called by init_run:
     wfcinit      :      5.39s CPU      5.43s WALL (       2 calls)
     wfcinit:atom :      0.02s CPU      0.06s WALL (     196 calls)
     wfcinit:wfcr :      4.89s CPU      4.96s WALL (     196 calls)
     potinit      :      0.67s CPU      0.67s WALL (       2 calls)
     hinit0       :      2.25s CPU      2.26s WALL (       2 calls)

     Called by electrons:
     c_bands      :    883.33s CPU    893.03s WALL (     170 calls)
     sum_band     :    123.34s CPU    133.46s WALL (     170 calls)
     v_of_rho     :      3.56s CPU      3.45s WALL (     174 calls)
     v_h          :      0.25s CPU      0.22s WALL (     174 calls)
     v_xc         :      3.59s CPU      3.56s WALL (     192 calls)
     newd         :      9.22s CPU     16.89s WALL (     174 calls)
     mix_rho      :      0.70s CPU      0.63s WALL (     170 calls)

     Called by c_bands:
     init_us_2    :     13.72s CPU     13.55s WALL (   35280 calls)
     cegterg      :    836.81s CPU    847.37s WALL (   16660 calls)

     Called by sum_band:
     sum_band:wei :      0.00s CPU      0.00s WALL (     170 calls)
     sum_band:loo :    113.75s CPU    115.10s WALL (     170 calls)
     sum_band:buf :      0.84s CPU      0.83s WALL (   16660 calls)
     sum_band:ini :      6.53s CPU      6.34s WALL (   16660 calls)
     sum_band:cal :     29.50s CPU     30.01s WALL (   16660 calls)
     sum_band:bec :      0.14s CPU      0.17s WALL (   16660 calls)
     addusdens    :      9.30s CPU     18.02s WALL (     170 calls)
     addusd:skk   :      0.05s CPU      0.04s WALL (     340 calls)
     addusd:dgemm :      2.61s CPU     10.26s WALL (     340 calls)
     addusd:qvan2 :      5.89s CPU      6.20s WALL (     340 calls)

     Called by *egterg:
     cdiaghg      :     10.19s CPU      9.74s WALL (   52263 calls)
     cegterg:over :     60.61s CPU     61.63s WALL (   36779 calls)
     cegterg:upda :     35.77s CPU     35.75s WALL (   36779 calls)
     cegterg:last :     76.16s CPU     77.25s WALL (   31074 calls)
     h_psi        :    543.36s CPU    553.79s WALL (   53635 calls)
     s_psi        :     84.77s CPU     83.77s WALL (   53635 calls)
     g_psi        :      4.52s CPU      4.29s WALL (   36779 calls)

     Called by h_psi:
     h_psi:calbec :     74.92s CPU     77.81s WALL (   53635 calls)
     vloc_psi     :    383.83s CPU    390.88s WALL (   53635 calls)
     add_vuspsi   :     83.55s CPU     83.65s WALL (   53635 calls)

     General routines
     calbec       :    113.08s CPU    116.30s WALL (   74705 calls)
     fft          :      2.17s CPU      2.32s WALL (    2481 calls)
     ffts         :      0.20s CPU      0.15s WALL (     344 calls)
     fftw         :    416.52s CPU    424.09s WALL ( 1839692 calls)
     interpolate  :      0.20s CPU      0.22s WALL (     174 calls)

     Parallel routines

     PWSCF        :  18m 1.92s CPU  18m31.77s WALL


   This run was terminated on:  19:36:10   9Nov2022            

=------------------------------------------------------------------------------=
   JOB DONE.
=------------------------------------------------------------------------------=
